 Entering Gaussian System, Link 0=g16
 Initial command:
 /share/Apps/gaussian/g16/l1.exe "/share/ceph/scratch/crf524/12270168/Gau-634374.inp" -scrdir="/share/ceph/scratch/crf524/12270168/"
 Entering Link 1 = /share/Apps/gaussian/g16/l1.exe PID=    634375.
  
 Copyright (c) 1988-2019, Gaussian, Inc.  All Rights Reserved.
  
 This is part of the Gaussian(R) 16 program.  It is based on
 the Gaussian(R) 09 system (copyright 2009, Gaussian, Inc.),
 the Gaussian(R) 03 system (copyright 2003, Gaussian, Inc.),
 the Gaussian(R) 98 system (copyright 1998, Gaussian, Inc.),
 the Gaussian(R) 94 system (copyright 1995, Gaussian, Inc.),
 the Gaussian 92(TM) system (copyright 1992, Gaussian, Inc.),
 the Gaussian 90(TM) system (copyright 1990, Gaussian, Inc.),
 the Gaussian 88(TM) system (copyright 1988, Gaussian, Inc.),
 the Gaussian 86(TM) system (copyright 1986, Carnegie Mellon
 University), and the Gaussian 82(TM) system (copyright 1983,
 Carnegie Mellon University). Gaussian is a federally registered
 trademark of Gaussian, Inc.
  
 This software contains proprietary and confidential information,
 including trade secrets, belonging to Gaussian, Inc.
  
 This software is provided under written license and may be
 used, copied, transmitted, or stored only in accord with that
 written license.
  
 The following legend is applicable only to US Government
 contracts under FAR:
  
                    RESTRICTED RIGHTS LEGEND
  
 Use, reproduction and disclosure by the US Government is
 subject to restrictions as set forth in subparagraphs (a)
 and (c) of the Commercial Computer Software - Restricted
 Rights clause in FAR 52.227-19.
  
 Gaussian, Inc.
 340 Quinnipiac St., Bldg. 40, Wallingford CT 06492
  
  
 ---------------------------------------------------------------
 Warning -- This program may not be used in any manner that
 competes with the business of Gaussian, Inc. or will provide
 assistance to any competitor of Gaussian, Inc.  The licensee
 of this program is prohibited from giving any competitor of
 Gaussian, Inc. access to this program.  By using this program,
 the user acknowledges that Gaussian, Inc. is engaged in the
 business of creating and licensing software in the field of
 computational chemistry and represents and warrants to the
 licensee that it is not a competitor of Gaussian, Inc. and that
 it will not use this program in any manner prohibited above.
 ---------------------------------------------------------------
  

 Cite this work as:
 Gaussian 16, Revision C.01,
 M. J. Frisch, G. W. Trucks, H. B. Schlegel, G. E. Scuseria, 
 M. A. Robb, J. R. Cheeseman, G. Scalmani, V. Barone, 
 G. A. Petersson, H. Nakatsuji, X. Li, M. Caricato, A. V. Marenich, 
 J. Bloino, B. G. Janesko, R. Gomperts, B. Mennucci, H. P. Hratchian, 
 J. V. Ortiz, A. F. Izmaylov, J. L. Sonnenberg, D. Williams-Young, 
 F. Ding, F. Lipparini, F. Egidi, J. Goings, B. Peng, A. Petrone, 
 T. Henderson, D. Ranasinghe, V. G. Zakrzewski, J. Gao, N. Rega, 
 G. Zheng, W. Liang, M. Hada, M. Ehara, K. Toyota, R. Fukuda, 
 J. Hasegawa, M. Ishida, T. Nakajima, Y. Honda, O. Kitao, H. Nakai, 
 T. Vreven, K. Throssell, J. A. Montgomery, Jr., J. E. Peralta, 
 F. Ogliaro, M. J. Bearpark, J. J. Heyd, E. N. Brothers, K. N. Kudin, 
 V. N. Staroverov, T. A. Keith, R. Kobayashi, J. Normand, 
 K. Raghavachari, A. P. Rendell, J. C. Burant, S. S. Iyengar, 
 J. Tomasi, M. Cossi, J. M. Millam, M. Klene, C. Adamo, R. Cammi, 
 J. W. Ochterski, R. L. Martin, K. Morokuma, O. Farkas, 
 J. B. Foresman, and D. J. Fox, Gaussian, Inc., Wallingford CT, 2019.
 
 ******************************************
 Gaussian 16:  ES64L-G16RevC.01  3-Jul-2019
                 6-Feb-2025 
 ******************************************
 %nprocshared=36
 Will use up to   36 processors via shared memory.
 %mem=190GB
 %chk=anti-trans.chk
 ----------------------------------------------------------------------
 #p td(nstates=20, singlets) cam-b3lyp/6-311g(d,p) scrf=(solvent=aceton
 itrile)
 ----------------------------------------------------------------------
 1/38=1,172=1/1;
 2/12=2,17=6,18=5,40=1/2;
 3/5=4,6=6,7=101,11=9,25=1,30=1,70=2201,72=2,74=-40/1,2,3,8;
 4//1;
 5/5=2,38=5,53=2/2;
 8/6=1,10=2,108=20/1;
 9/41=20,42=1,48=1,70=2/14;
 6/7=2,8=2,9=2,10=2/1;
 99/5=1,9=1/99;
 Leave Link    1 at Thu Feb  6 14:03:23 2025, MaxMem= 25501368320 cpu:               3.1 elap:               0.1
 (Enter /share/Apps/gaussian/g16/l101.exe)
 ---------------------------
 cf3-pai-me_anti-trans_tddft
 ---------------------------
 Symbolic Z-matrix:
 Charge =  0 Multiplicity = 1
 N                    -0.77553  -0.63117  -0.02253 
 N                    -0.11002   0.43516  -0.02052 
 C                    -2.13585  -0.49752  -0.01317 
 C                    -2.99099   0.66786   0.00681 
 C                    -2.95924  -1.62034  -0.02163 
 C                    -4.30718   0.1706    0.00977 
 C                    -2.78844   2.04935   0.02284 
 C                    -5.42023   1.00143   0.02797 
 C                    -3.89347   2.88428   0.04113 
 H                    -1.78453   2.44716   0.02069 
 C                    -5.19417   2.36798   0.04362 
 H                    -6.42627   0.60152   0.0299 
 H                    -3.75017   3.9581    0.05373 
 H                    -6.03852   3.04631   0.05806 
 C                     1.29422   0.24494  -0.02103 
 C                     2.06449   1.40136  -0.11094 
 C                     1.92752  -0.99763   0.06717 
 C                     3.44743   1.32806  -0.1177 
 H                     1.56051   2.35694  -0.17915 
 C                     3.30624  -1.07213   0.06157 
 H                     1.32637  -1.8926    0.13826 
 C                     4.06855   0.08998  -0.03209 
 H                     4.04025   2.22976  -0.19452 
 H                     3.79612  -2.0357    0.12385 
 N                    -4.25479  -1.21876  -0.00775 
 C                    -5.43194  -2.06723  -0.01008 
 H                    -6.02985  -1.88584   0.88412 
 H                    -6.0405   -1.86663  -0.89294 
 H                    -5.13092  -3.1104   -0.02304 
 C                    -2.55242  -3.04846  -0.04323 
 H                    -2.93869  -3.55657  -0.92979 
 H                    -1.46718  -3.10976  -0.05279 
 H                    -2.92488  -3.57991   0.83552 
 C                     5.55922  -0.00424   0.0125 
 F                     6.01999  -1.08578  -0.64329 
 F                     6.02401  -0.1052    1.27621 
 F                     6.15913   1.07001  -0.52817 
 
 ITRead=  0  0  0  0  0  0  0  0  0  0  0  0  0  0  0  0  0  0  0  0
 ITRead=  0  0  0  0  0  0  0  0  0  0  0  0  0  0  0  0  0
 MicOpt= -1 -1 -1 -1 -1 -1 -1 -1 -1 -1 -1 -1 -1 -1 -1 -1 -1 -1 -1 -1
 MicOpt= -1 -1 -1 -1 -1 -1 -1 -1 -1 -1 -1 -1 -1 -1 -1 -1 -1
 NAtoms=     37 NQM=       37 NQMF=       0 NMMI=      0 NMMIF=      0
                NMic=       0 NMicF=      0.
                    Isotopes and Nuclear Properties:
 (Nuclear quadrupole moments (NQMom) in fm**2, nuclear magnetic moments (NMagM)
  in nuclear magnetons)

  Atom         1           2           3           4           5           6           7           8           9          10
 IAtWgt=          14          14          12          12          12          12          12          12          12           1
 AtmWgt=  14.0030740  14.0030740  12.0000000  12.0000000  12.0000000  12.0000000  12.0000000  12.0000000  12.0000000   1.0078250
 NucSpn=           2           2           0           0           0           0           0           0           0           1
 AtZEff=  -0.0000000  -0.0000000  -0.0000000  -0.0000000  -0.0000000  -0.0000000  -0.0000000  -0.0000000  -0.0000000  -0.0000000
 NQMom=    2.0440000   2.0440000   0.0000000   0.0000000   0.0000000   0.0000000   0.0000000   0.0000000   0.0000000   0.0000000
 NMagM=    0.4037610   0.4037610   0.0000000   0.0000000   0.0000000   0.0000000   0.0000000   0.0000000   0.0000000   2.7928460
 AtZNuc=   7.0000000   7.0000000   6.0000000   6.0000000   6.0000000   6.0000000   6.0000000   6.0000000   6.0000000   1.0000000

  Atom        11          12          13          14          15          16          17          18          19          20
 IAtWgt=          12           1           1           1          12          12          12          12           1          12
 AtmWgt=  12.0000000   1.0078250   1.0078250   1.0078250  12.0000000  12.0000000  12.0000000  12.0000000   1.0078250  12.0000000
 NucSpn=           0           1           1           1           0           0           0           0           1           0
 AtZEff=  -0.0000000  -0.0000000  -0.0000000  -0.0000000  -0.0000000  -0.0000000  -0.0000000  -0.0000000  -0.0000000  -0.0000000
 NQMom=    0.0000000   0.0000000   0.0000000   0.0000000   0.0000000   0.0000000   0.0000000   0.0000000   0.0000000   0.0000000
 NMagM=    0.0000000   2.7928460   2.7928460   2.7928460   0.0000000   0.0000000   0.0000000   0.0000000   2.7928460   0.0000000
 AtZNuc=   6.0000000   1.0000000   1.0000000   1.0000000   6.0000000   6.0000000   6.0000000   6.0000000   1.0000000   6.0000000

  Atom        21          22          23          24          25          26          27          28          29          30
 IAtWgt=           1          12           1           1          14          12           1           1           1          12
 AtmWgt=   1.0078250  12.0000000   1.0078250   1.0078250  14.0030740  12.0000000   1.0078250   1.0078250   1.0078250  12.0000000
 NucSpn=           1           0           1           1           2           0           1           1           1           0
 AtZEff=  -0.0000000  -0.0000000  -0.0000000  -0.0000000  -0.0000000  -0.0000000  -0.0000000  -0.0000000  -0.0000000  -0.0000000
 NQMom=    0.0000000   0.0000000   0.0000000   0.0000000   2.0440000   0.0000000   0.0000000   0.0000000   0.0000000   0.0000000
 NMagM=    2.7928460   0.0000000   2.7928460   2.7928460   0.4037610   0.0000000   2.7928460   2.7928460   2.7928460   0.0000000
 AtZNuc=   1.0000000   6.0000000   1.0000000   1.0000000   7.0000000   6.0000000   1.0000000   1.0000000   1.0000000   6.0000000

  Atom        31          32          33          34          35          36          37
 IAtWgt=           1           1           1          12          19          19          19
 AtmWgt=   1.0078250   1.0078250   1.0078250  12.0000000  18.9984032  18.9984032  18.9984032
 NucSpn=           1           1           1           0           1           1           1
 AtZEff=  -0.0000000  -0.0000000  -0.0000000  -0.0000000  -0.0000000  -0.0000000  -0.0000000
 NQMom=    0.0000000   0.0000000   0.0000000   0.0000000   0.0000000   0.0000000   0.0000000
 NMagM=    2.7928460   2.7928460   2.7928460   0.0000000   2.6288670   2.6288670   2.6288670
 AtZNuc=   1.0000000   1.0000000   1.0000000   6.0000000   9.0000000   9.0000000   9.0000000
 Leave Link  101 at Thu Feb  6 14:03:23 2025, MaxMem= 25501368320 cpu:               3.3 elap:               0.1
 (Enter /share/Apps/gaussian/g16/l202.exe)
                          Input orientation:                          
 ---------------------------------------------------------------------
 Center     Atomic      Atomic             Coordinates (Angstroms)
 Number     Number       Type             X           Y           Z
 ---------------------------------------------------------------------
      1          7           0       -0.775530   -0.631170   -0.022530
      2          7           0       -0.110023    0.435160   -0.020520
      3          6           0       -2.135845   -0.497521   -0.013172
      4          6           0       -2.990989    0.667861    0.006806
      5          6           0       -2.959235   -1.620341   -0.021628
      6          6           0       -4.307176    0.170600    0.009771
      7          6           0       -2.788442    2.049352    0.022835
      8          6           0       -5.420235    1.001432    0.027967
      9          6           0       -3.893472    2.884275    0.041128
     10          1           0       -1.784525    2.447159    0.020689
     11          6           0       -5.194169    2.367982    0.043618
     12          1           0       -6.426274    0.601524    0.029896
     13          1           0       -3.750173    3.958096    0.053727
     14          1           0       -6.038524    3.046307    0.058061
     15          6           0        1.294216    0.244943   -0.021030
     16          6           0        2.064490    1.401361   -0.110935
     17          6           0        1.927520   -0.997630    0.067166
     18          6           0        3.447432    1.328062   -0.117701
     19          1           0        1.560511    2.356935   -0.179150
     20          6           0        3.306243   -1.072133    0.061567
     21          1           0        1.326370   -1.892601    0.138256
     22          6           0        4.068554    0.089981   -0.032088
     23          1           0        4.040252    2.229762   -0.194523
     24          1           0        3.796115   -2.035695    0.123850
     25          7           0       -4.254795   -1.218764   -0.007749
     26          6           0       -5.431940   -2.067230   -0.010084
     27          1           0       -6.029852   -1.885838    0.884123
     28          1           0       -6.040501   -1.866626   -0.892943
     29          1           0       -5.130920   -3.110395   -0.023043
     30          6           0       -2.552424   -3.048462   -0.043234
     31          1           0       -2.938689   -3.556569   -0.929792
     32          1           0       -1.467180   -3.109758   -0.052787
     33          1           0       -2.924880   -3.579905    0.835523
     34          6           0        5.559223   -0.004237    0.012503
     35          9           0        6.019995   -1.085778   -0.643291
     36          9           0        6.024011   -0.105200    1.276209
     37          9           0        6.159127    1.070005   -0.528166
 ---------------------------------------------------------------------
                    Distance matrix (angstroms):
                    1          2          3          4          5
     1  N    0.000000
     2  N    1.256966   0.000000
     3  C    1.366897   2.230225   0.000000
     4  C    2.568385   2.890478   1.445609   0.000000
     5  C    2.397296   3.513274   1.392396   2.288599   0.000000
     6  C    3.621657   4.205592   2.271913   1.406992   2.241741
     7  C    3.352472   3.127527   2.629399   1.396352   3.673934
     8  C    4.923538   5.340540   3.610508   2.452132   3.596203
     9  C    4.699358   4.507377   3.811659   2.393354   4.600902
    10  H    3.239761   2.617975   2.965757   2.149802   4.233945
    11  C    5.340755   5.439527   4.191381   2.783122   4.572298
    12  H    5.783873   6.318643   4.429169   3.436003   4.118215
    13  H    5.469523   5.066289   4.739520   3.377012   5.634733
    14  H    6.421015   6.478533   5.272067   3.866148   5.591599
    15  C    2.247537   1.417064   3.509506   4.306114   4.644473
    16  C    3.493524   2.381224   4.610653   5.109770   5.863145
    17  C    2.729252   2.492420   4.094814   5.193191   4.927071
    18  C    4.656292   3.669088   5.875088   6.473379   7.053204
    19  H    3.796102   2.551287   4.673170   4.858364   6.022594
    20  C    4.106384   3.734909   5.472850   6.533430   6.289966
    21  H    2.456633   2.739873   3.735788   5.021238   4.297220
    22  C    4.897479   4.192826   6.232181   7.083262   7.232920
    23  H    5.604130   4.525003   6.753898   7.205444   7.990369
    24  H    4.784773   4.624271   6.129674   7.306688   6.769670
    25  N    3.528565   4.462596   2.238341   2.270853   1.356441
    26  C    4.872841   5.880890   3.650786   3.665958   2.512790
    27  H    5.477601   6.422600   4.230349   4.065188   3.212408
    28  H    5.477581   6.421052   4.230223   4.066042   3.211549
    29  H    5.011584   6.146574   3.974630   4.342282   2.633720
    30  C    3.000180   4.254581   2.584907   3.742446   1.485090
    31  H    3.749712   4.976146   3.292799   4.327327   2.138729
    32  H    2.573459   3.795966   2.696751   4.073813   2.108450
    33  H    3.748466   4.977648   3.293015   4.328355   2.139107
    34  C    6.365797   5.686344   7.710905   8.576589   8.670472
    35  F    6.838945   6.346512   8.201270   9.203027   9.016584
    36  F    6.942415   6.292843   8.270409   9.136697   9.202105
    37  F    7.158151   6.321628   8.457477   9.174559   9.520455
                    6          7          8          9         10
     6  C    0.000000
     7  C    2.415871   0.000000
     8  C    1.389069   2.832754   0.000000
     9  C    2.745208   1.385107   2.424103   0.000000
    10  H    3.398030   1.079863   3.912616   2.153868   0.000000
    11  C    2.369892   2.426825   1.385211   1.399420   3.410640
    12  H    2.162563   3.915364   1.082610   3.409716   4.995226
    13  H    3.828487   2.137565   3.395826   1.083414   2.479475
    14  H    3.357021   3.399734   2.136516   2.151230   4.296147
    15  C    5.601970   4.463845   6.757109   5.820828   3.785517
    16  C    6.490568   4.897830   7.496689   6.141618   3.990731
    17  C    6.343460   5.614834   7.614939   6.996700   5.064386
    18  C    7.841550   6.279023   8.874876   7.505724   5.352093
    19  H    6.264623   4.364493   7.114148   5.483844   3.352214
    20  C    7.714351   6.847653   8.969516   8.215198   6.188942
    21  H    6.000846   5.699473   7.341953   7.076350   5.340881
    22  C    8.376223   7.131658   9.532653   8.438442   6.310119
    23  H    8.600084   6.834534   9.542490   7.964163   5.832804
    24  H    8.399052   7.749465   9.704352   9.129222   7.158922
    25  N    1.390461   3.582137   2.507747   4.119208   4.420637
    26  C    2.504670   4.892383   3.068920   5.185259   5.803817
    27  H    2.821532   5.170520   3.072615   5.294217   6.127249
    28  H    2.823048   5.171984   3.075477   5.296535   6.128360
    29  H    3.382981   5.666771   4.122308   6.121394   6.487425
    30  C    3.666650   5.103702   4.962968   6.083000   5.549379
    31  H    4.080113   5.688271   5.277381   6.583219   6.187104
    32  H    4.339382   5.326149   5.703950   6.467159   5.566456
    33  H    4.081531   5.689254   5.278976   6.584441   6.187880
    34  C    9.867948   8.596560  11.025430   9.884218   7.742096
    35  F   10.423792   9.373437  11.648429  10.700775   8.592616
    36  F   10.412173   9.158186  11.565185  10.431628   8.310481
    37  F   10.518641   9.017855  11.592912  10.230856   8.080805
                   11         12         13         14         15
    11  C    0.000000
    12  H    2.153751   0.000000
    13  H    2.147950   4.292862   0.000000
    14  H    1.083175   2.475501   2.463317   0.000000
    15  C    6.827197   7.728888   6.264100   7.850030   0.000000
    16  C    7.324368   8.529516   6.354078   8.270021   1.392375
    17  C    7.876951   8.505560   7.536285   8.933721   1.397441
    18  C    8.705442   9.901501   7.664984   9.641920   2.412225
    19  H    6.758361   8.180092   5.551695   7.633927   2.134578
    20  C    9.170154   9.875425   8.665811  10.212063   2.406193
    21  H    7.789670   8.144685   7.746553   8.867971   2.143712
    22  C    9.539028  10.507470   8.723656  10.530955   2.778684
    23  H    9.238525  10.594795   7.983701  10.114953   3.392686
    24  H   10.011194  10.557509   9.637267  11.070284   3.388480
    25  N    3.708073   2.833758   5.201760   4.623511   5.738827
    26  C    4.441905   2.848253   6.255954   5.149840   7.112485
    27  H    4.415858   2.659666   6.327563   5.000851   7.681243
    28  H    4.418747   2.663122   6.330022   5.004131   7.682254
    29  H    5.479148   3.931805   7.202494   6.223769   7.248494
    30  C    6.026958   5.323012   7.108858   7.022063   5.063956
    31  H    6.413659   5.511260   7.622074   7.360897   5.761495
    32  H    6.626113   6.194600   7.428187   7.668547   4.345151
    33  H    6.415150   5.512998   7.623239   7.362466   5.758812
    34  C   11.011986  12.000808  10.117640  11.992315   4.272411
    35  F   11.754054  12.578147  11.017381  12.766123   4.948840
    36  F   11.553505  12.532452  10.655492  12.526797   4.916949
    37  F   11.441548  12.606476  10.337983  12.370615   4.960370
                   16         17         18         19         20
    16  C    0.000000
    17  C    2.409489   0.000000
    18  C    1.384900   2.784448   0.000000
    19  H    1.082483   3.383559   2.150076   0.000000
    20  C    2.773063   1.380746   2.411018   3.855390   0.000000
    21  H    3.384834   1.080467   3.864853   4.267801   2.144515
    22  C    2.396290   2.403492   1.387792   3.383931   1.392982
    23  H    2.144031   3.866287   1.081850   2.483047   3.392177
    24  H    3.855775   2.138326   3.390396   4.938110   1.082731
    25  N    6.841715   6.186722   8.113120   6.828820   7.562777
    26  C    8.260615   7.437181   9.506989   8.276243   8.794953
    27  H    8.792849   8.048360  10.057421   8.760438   9.407517
    28  H    8.773947   8.072566  10.041310   8.724870   9.428888
    29  H    8.493385   7.368412   9.659036   8.642414   8.680287
    30  C    6.412597   4.928286   7.426828   6.793602   6.183918
    31  H    7.091079   5.587673   8.080944   7.468319   6.793702
    32  H    5.729421   3.999933   6.622075   6.250409   5.191393
    33  H    7.113551   5.550162   8.099576   7.509618   6.761274
    34  C    3.768833   3.765512   2.500327   4.647748   2.493738
    35  F    4.702689   4.154620   3.566644   5.652849   2.803830
    36  F    4.457769   4.363422   3.261286   5.301227   3.129948
    37  F    4.129156   4.747213   2.754699   4.788034   3.616004
                   21         22         23         24         25
    21  H    0.000000
    22  C    3.388100   0.000000
    23  H    4.946693   2.146124   0.000000
    24  H    2.473929   2.148729   4.284284   0.000000
    25  N    5.623591   8.425648   8.985267   8.093321   0.000000
    26  C    6.762193   9.742352  10.402912   9.229081   1.451058
    27  H    7.393941  10.330591  10.932001   9.856475   2.095531
    28  H    7.438739  10.332588  10.903658   9.890474   2.095719
    29  H    6.573099   9.740267  10.614004   8.992692   2.084729
    30  C    4.051419   7.327162   8.446651   6.430984   2.499424
    31  H    4.701090   7.950135   9.095486   6.984326   2.836835
    32  H    3.053177   6.393990   7.672182   5.374671   3.368781
    33  H    4.626695   7.945372   9.128323   6.932737   2.838092
    34  C    4.636677   1.494309   2.709407   2.692168   9.888905
    35  F    4.826168   2.358835   3.887619   2.537024  10.295286
    36  F    5.153404   2.360836   3.398588   3.165164  10.418370
    37  F    5.707600   2.361575   2.438439   3.956554  10.675161
                   26         27         28         29         30
    26  C    0.000000
    27  H    1.090875   0.000000
    28  H    1.090884   1.777202   0.000000
    29  H    1.085806   1.769341   1.769470   0.000000
    30  C    3.042290   3.782088   3.779606   2.579319   0.000000
    31  H    3.046357   3.954354   3.532492   2.413947   1.092409
    32  H    4.099757   4.815990   4.813159   3.663861   1.087016
    33  H    3.047718   3.537383   3.953481   2.413335   1.092414
    34  C   11.183117  11.773139  11.783120  11.132324   8.664250
    35  F   11.511343  12.172588  12.088326  11.350184   8.814679
    36  F   11.693713  12.190981  12.383872  11.625478   9.162912
    37  F   12.019296  12.621520  12.553397  12.049733   9.648215
                   31         32         33         34         35
    31  H    0.000000
    32  H    1.770344   0.000000
    33  H    1.765523   1.770599   0.000000
    34  C    9.258590   7.682373   9.243526   0.000000
    35  F    9.297575   7.778366   9.403103   1.346145   0.000000
    36  F    9.854358   8.179948   9.609913   1.350250   2.155465
    37  F   10.214536   8.709590  10.295654   1.343951   2.163333
                   36         37
    36  F    0.000000
    37  F    2.157576   0.000000
 Stoichiometry    C17H14F3N3
 Framework group  C1[X(C17H14F3N3)]
 Deg. of freedom   105
 Full point group                 C1      NOp   1
 Largest Abelian subgroup         C1      NOp   1
 Largest concise Abelian subgroup C1      NOp   1
                         Standard orientation:                         
 ---------------------------------------------------------------------
 Center     Atomic      Atomic             Coordinates (Angstroms)
 Number     Number       Type             X           Y           Z
 ---------------------------------------------------------------------
      1          7           0        0.775530    0.631170   -0.022530
      2          7           0        0.110023   -0.435160   -0.020520
      3          6           0        2.135845    0.497521   -0.013172
      4          6           0        2.990989   -0.667861    0.006806
      5          6           0        2.959235    1.620341   -0.021628
      6          6           0        4.307176   -0.170600    0.009771
      7          6           0        2.788442   -2.049352    0.022835
      8          6           0        5.420235   -1.001432    0.027967
      9          6           0        3.893472   -2.884275    0.041128
     10          1           0        1.784525   -2.447159    0.020689
     11          6           0        5.194169   -2.367982    0.043618
     12          1           0        6.426274   -0.601524    0.029896
     13          1           0        3.750173   -3.958096    0.053727
     14          1           0        6.038524   -3.046307    0.058061
     15          6           0       -1.294216   -0.244943   -0.021030
     16          6           0       -2.064490   -1.401361   -0.110935
     17          6           0       -1.927520    0.997630    0.067166
     18          6           0       -3.447432   -1.328062   -0.117701
     19          1           0       -1.560511   -2.356935   -0.179150
     20          6           0       -3.306243    1.072133    0.061567
     21          1           0       -1.326370    1.892601    0.138256
     22          6           0       -4.068554   -0.089981   -0.032088
     23          1           0       -4.040252   -2.229762   -0.194523
     24          1           0       -3.796115    2.035695    0.123850
     25          7           0        4.254795    1.218764   -0.007749
     26          6           0        5.431940    2.067230   -0.010084
     27          1           0        6.029852    1.885838    0.884123
     28          1           0        6.040501    1.866626   -0.892943
     29          1           0        5.130920    3.110395   -0.023043
     30          6           0        2.552424    3.048462   -0.043234
     31          1           0        2.938689    3.556569   -0.929792
     32          1           0        1.467180    3.109758   -0.052787
     33          1           0        2.924880    3.579905    0.835523
     34          6           0       -5.559223    0.004237    0.012503
     35          9           0       -6.019995    1.085778   -0.643291
     36          9           0       -6.024011    0.105200    1.276209
     37          9           0       -6.159127   -1.070005   -0.528166
 ---------------------------------------------------------------------
 Rotational constants (GHZ):           0.6951082           0.0921537           0.0826419
 Leave Link  202 at Thu Feb  6 14:03:23 2025, MaxMem= 25501368320 cpu:               0.2 elap:               0.0
 (Enter /share/Apps/gaussian/g16/l301.exe)
 Standard basis: 6-311G(d,p) (5D, 7F)
 Ernie: Thresh=  0.10000D-02 Tol=  0.10000D-05 Strict=F.
 There are   521 symmetry adapted cartesian basis functions of A   symmetry.
 There are   498 symmetry adapted basis functions of A   symmetry.
   498 basis functions,   848 primitive gaussians,   521 cartesian basis functions
    82 alpha electrons       82 beta electrons
       nuclear repulsion energy      1780.6893070760 Hartrees.
 IExCor=20419 DFT=T Ex+Corr=CAM-B3LYP ExCW=0 ScaHFX=  1.000000
 ScaDFX=  1.000000  1.000000  1.000000  0.810000 ScalE2=  1.000000  1.000000
 IRadAn=      5 IRanWt=     -1 IRanGd=            0 ICorTp=0 IEmpDi=  4
 HFx  wShort=  0.000000 wLong=  0.330000 cFull=  0.190000 cShort=  0.000000 cLong=  0.460000
 DFx  wShort=  0.000000 wLong=  0.330000 cFull=  0.190000 cShort=  0.000000 cLong=  0.460000
 NAtoms=   37 NActive=   37 NUniq=   37 SFac= 1.00D+00 NAtFMM=   60 NAOKFM=F Big=F
 Integral buffers will be    131072 words long.
 Raffenetti 1 integral format.
 Two-electron integral symmetry is turned on.
 ------------------------------------------------------------------------------
 Polarizable Continuum Model (PCM)
 =================================
 Model                : PCM.
 Atomic radii         : UFF (Universal Force Field).
 Polarization charges : Total charges.
 Charge compensation  : None.
 Solution method      : On-the-fly selection.
 Cavity type          : Scaled VdW (van der Waals Surface) (Alpha=1.100).
 Cavity algorithm     : GePol (No added spheres)
                        Default sphere list used, NSphG=   37.
                        Lebedev-Laikov grids with approx.  5.0 points / Ang**2.
                        Smoothing algorithm: York/Karplus (Gamma=1.0000).
                        Polarization charges: spherical gaussians, with
                                              point-specific exponents (IZeta= 3).
                        Self-potential: point-specific (ISelfS= 7).
                        Self-field    : sphere-specific E.n sum rule (ISelfD= 2).
 Solvent              : Acetonitrile, Eps=  35.688000 Eps(inf)=   1.806874
 ------------------------------------------------------------------------------
 GePol: Number of generator spheres                  =      37
 GePol: Total number of spheres                      =      37
 GePol: Number of exposed spheres                    =      37 (100.00%)
 GePol: Number of points                             =    2976
 GePol: Average weight of points                     =       0.13
 GePol: Minimum weight of points                     =   0.80D-11
 GePol: Maximum weight of points                     =    0.20577
 GePol: Number of points with low weight             =     188
 GePol: Fraction of low-weight points (<1% of avg)   =       6.32%
 GePol: Cavity surface area                          =    375.073 Ang**2
 GePol: Cavity volume                                =    405.194 Ang**3
 Leave Link  301 at Thu Feb  6 14:03:23 2025, MaxMem= 25501368320 cpu:               3.2 elap:               0.1
 (Enter /share/Apps/gaussian/g16/l302.exe)
 NPDir=0 NMtPBC=     1 NCelOv=     1 NCel=       1 NClECP=     1 NCelD=      1
         NCelK=      1 NCelE2=     1 NClLst=     1 CellRange=     0.0.
 One-electron integrals computed using PRISM.
 One-electron integral symmetry used in STVInt
 NBasis=   498 RedAO= T EigKep=  1.25D-04  NBF=   498
 NBsUse=   498 1.00D-06 EigRej= -1.00D+00 NBFU=   498
 Precomputing XC quadrature grid using
 IXCGrd= 4 IRadAn=           5 IRanWt=          -1 IRanGd=           0 AccXCQ= 0.00D+00.
 Generated NRdTot=       0 NPtTot=           0 NUsed=           0 NTot=          32
 NSgBfM=   504   504   504   504   504 MxSgAt=    37 MxSgA2=    37.
 Leave Link  302 at Thu Feb  6 14:03:23 2025, MaxMem= 25501368320 cpu:              13.8 elap:               0.4
 (Enter /share/Apps/gaussian/g16/l303.exe)
 DipDrv:  MaxL=1.
 Leave Link  303 at Thu Feb  6 14:03:24 2025, MaxMem= 25501368320 cpu:               3.4 elap:               0.1
 (Enter /share/Apps/gaussian/g16/l308.exe)
 Leave Link  308 at Thu Feb  6 14:03:24 2025, MaxMem= 25501368320 cpu:               2.2 elap:               0.1
 (Enter /share/Apps/gaussian/g16/l401.exe)
 ExpMin= 1.03D-01 ExpMax= 1.14D+04 ExpMxC= 1.72D+03 IAcc=3 IRadAn=         5 AccDes= 0.00D+00
 Harris functional with IExCor=20419 and IRadAn=       5 diagonalized for initial guess.
 HarFok:  IExCor=20419 AccDes= 0.00D+00 IRadAn=         5 IDoV= 1 UseB2=F ITyADJ=14
 ICtDFT=  3500011 ScaDFX=  1.000000  1.000000  1.000000  1.000000
 FoFCou: FMM=F IPFlag=           0 FMFlag=      100000 FMFlg1=           0
         NFxFlg=           0 DoJE=T BraDBF=F KetDBF=T FulRan=T
         wScrn=  0.000000 ICntrl=       500 IOpCl=  0 I1Cent=   200000004 NGrid=           0
         NMat0=    1 NMatS0=      1 NMatT0=    0 NMatD0=    1 NMtDS0=    0 NMtDT0=    0
 Petite list used in FoFCou.
 Harris En= -1079.18459161983    
 JPrj=0 DoOrth=F DoCkMO=F.
 Leave Link  401 at Thu Feb  6 14:03:24 2025, MaxMem= 25501368320 cpu:              24.8 elap:               0.7
 (Enter /share/Apps/gaussian/g16/l502.exe)
 Integral symmetry usage will be decided dynamically.
 Closed shell SCF:
 Using DIIS extrapolation, IDIIS=  1040.
 NGot= 25501368320 LenX= 25500800723 LenY= 25500528761
 Requested convergence on RMS density matrix=1.00D-08 within 128 cycles.
 Requested convergence on MAX density matrix=1.00D-06.
 Requested convergence on             energy=1.00D-06.
 No special actions if energy rises.
 Fock matrices will be formed incrementally for  20 cycles.

 Cycle   1  Pass 1  IDiag  1:
 FoFJK:  IHMeth= 1 ICntrl=       0 DoSepK=T KAlg= 0 I1Cent=           0 FoldK=F
 IRaf=         1 NMat=       1 IRICut=       1 DoRegI=T DoRafI=F ISym2E= 0 IDoP0=0 IntGTp=1.
 FoFCou: FMM=F IPFlag=           0 FMFlag=      100000 FMFlg1=           0
         NFxFlg=           0 DoJE=T BraDBF=F KetDBF=F FulRan=T
         wScrn=  0.000000 ICntrl=       500 IOpCl=  0 I1Cent=           0 NGrid=           0
         NMat0=    1 NMatS0=      1 NMatT0=    0 NMatD0=    1 NMtDS0=    0 NMtDT0=    0
 Symmetry not used in FoFCou.
 Inv3:  Mode=1 IEnd=    26569728.
 Iteration    1 A*A^-1 deviation from unit magnitude is 3.55D-15 for    280.
 Iteration    1 A*A^-1 deviation from orthogonality  is 2.77D-15 for   1862    657.
 Iteration    1 A^-1*A deviation from unit magnitude is 3.33D-15 for    280.
 Iteration    1 A^-1*A deviation from orthogonality  is 1.61D-15 for   2544   2122.
 E= -1119.38270505135    
 DIIS: error= 8.00D-02 at cycle   1 NSaved=   1.
 NSaved= 1 IEnMin= 1 EnMin= -1119.38270505135     IErMin= 1 ErrMin= 8.00D-02
 ErrMax= 8.00D-02  0.00D+00 EMaxC= 1.00D-01 BMatC= 2.02D+00 BMatP= 2.02D+00
 IDIUse=3 WtCom= 2.00D-01 WtEn= 8.00D-01
 Coeff-Com:  0.100D+01
 Coeff-En:   0.100D+01
 Coeff:      0.100D+01
 Gap=     0.311 Goal=   None    Shift=    0.000
 GapD=    0.311 DampG=1.000 DampE=0.500 DampFc=0.5000 IDamp=-1.
 Damping current iteration by 5.00D-01
 RMSDP=3.58D-03 MaxDP=2.15D-01              OVMax= 1.50D-01

 Cycle   2  Pass 1  IDiag  1:
 RMSU=  1.56D-03    CP:  9.18D-01
 E= -1119.58191462853     Delta-E=       -0.199209577174 Rises=F Damp=T
 DIIS: error= 3.72D-02 at cycle   2 NSaved=   2.
 NSaved= 2 IEnMin= 2 EnMin= -1119.58191462853     IErMin= 2 ErrMin= 3.72D-02
 ErrMax= 3.72D-02  0.00D+00 EMaxC= 1.00D-01 BMatC= 3.67D-01 BMatP= 2.02D+00
 IDIUse=3 WtCom= 6.28D-01 WtEn= 3.72D-01
 Coeff-Com: -0.442D+00 0.144D+01
 Coeff-En:   0.000D+00 0.100D+01
 Coeff:     -0.278D+00 0.128D+01
 Gap=     0.274 Goal=   None    Shift=    0.000
 RMSDP=8.50D-04 MaxDP=4.72D-02 DE=-1.99D-01 OVMax= 1.37D-01

 Cycle   3  Pass 1  IDiag  1:
 RMSU=  8.42D-04    CP:  9.27D-01  9.70D-01
 E= -1119.74537164408     Delta-E=       -0.163457015553 Rises=F Damp=F
 DIIS: error= 1.37D-02 at cycle   3 NSaved=   3.
 NSaved= 3 IEnMin= 3 EnMin= -1119.74537164408     IErMin= 3 ErrMin= 1.37D-02
 ErrMax= 1.37D-02  0.00D+00 EMaxC= 1.00D-01 BMatC= 6.70D-02 BMatP= 3.67D-01
 IDIUse=3 WtCom= 8.63D-01 WtEn= 1.37D-01
 Coeff-Com: -0.248D+00 0.564D+00 0.684D+00
 Coeff-En:   0.000D+00 0.000D+00 0.100D+01
 Coeff:     -0.214D+00 0.487D+00 0.727D+00
 Gap=     0.227 Goal=   None    Shift=    0.000
 RMSDP=9.60D-04 MaxDP=7.38D-02 DE=-1.63D-01 OVMax= 5.66D-02

 Cycle   4  Pass 1  IDiag  1:
 RMSU=  2.74D-04    CP:  8.84D-01  1.42D+00  5.50D-01
 E= -1119.79194915488     Delta-E=       -0.046577510800 Rises=F Damp=F
 DIIS: error= 5.51D-03 at cycle   4 NSaved=   4.
 NSaved= 4 IEnMin= 4 EnMin= -1119.79194915488     IErMin= 4 ErrMin= 5.51D-03
 ErrMax= 5.51D-03  0.00D+00 EMaxC= 1.00D-01 BMatC= 6.99D-03 BMatP= 6.70D-02
 IDIUse=3 WtCom= 9.45D-01 WtEn= 5.51D-02
 Coeff-Com: -0.943D-01 0.209D+00 0.375D+00 0.510D+00
 Coeff-En:   0.000D+00 0.000D+00 0.118D-01 0.988D+00
 Coeff:     -0.891D-01 0.198D+00 0.355D+00 0.536D+00
 Gap=     0.214 Goal=   None    Shift=    0.000
 RMSDP=1.39D-04 MaxDP=1.25D-02 DE=-4.66D-02 OVMax= 1.63D-02

 Cycle   5  Pass 1  IDiag  1:
 RMSU=  7.83D-05    CP:  8.88D-01  1.38D+00  6.41D-01  8.19D-01
 E= -1119.79740950367     Delta-E=       -0.005460348793 Rises=F Damp=F
 DIIS: error= 8.38D-04 at cycle   5 NSaved=   5.
 NSaved= 5 IEnMin= 5 EnMin= -1119.79740950367     IErMin= 5 ErrMin= 8.38D-04
 ErrMax= 8.38D-04  0.00D+00 EMaxC= 1.00D-01 BMatC= 1.42D-04 BMatP= 6.99D-03
 IDIUse=3 WtCom= 9.92D-01 WtEn= 8.38D-03
 Coeff-Com: -0.216D-01 0.469D-01 0.985D-01 0.204D+00 0.672D+00
 Coeff-En:   0.000D+00 0.000D+00 0.000D+00 0.000D+00 0.100D+01
 Coeff:     -0.214D-01 0.465D-01 0.976D-01 0.203D+00 0.675D+00
 Gap=     0.215 Goal=   None    Shift=    0.000
 RMSDP=2.84D-05 MaxDP=1.70D-03 DE=-5.46D-03 OVMax= 4.03D-03

 Cycle   6  Pass 1  IDiag  1:
 RMSU=  2.15D-05    CP:  8.88D-01  1.38D+00  6.53D-01  8.47D-01  8.30D-01
 E= -1119.79754979539     Delta-E=       -0.000140291718 Rises=F Damp=F
 DIIS: error= 2.51D-04 at cycle   6 NSaved=   6.
 NSaved= 6 IEnMin= 6 EnMin= -1119.79754979539     IErMin= 6 ErrMin= 2.51D-04
 ErrMax= 2.51D-04  0.00D+00 EMaxC= 1.00D-01 BMatC= 2.60D-05 BMatP= 1.42D-04
 IDIUse=3 WtCom= 9.97D-01 WtEn= 2.51D-03
 Coeff-Com:  0.950D-02-0.214D-01-0.333D-01-0.244D-01 0.304D+00 0.765D+00
 Coeff-En:   0.000D+00 0.000D+00 0.000D+00 0.000D+00 0.000D+00 0.100D+01
 Coeff:      0.948D-02-0.213D-01-0.332D-01-0.243D-01 0.304D+00 0.766D+00
 Gap=     0.215 Goal=   None    Shift=    0.000
 RMSDP=3.68D-05 MaxDP=3.18D-03 DE=-1.40D-04 OVMax= 2.44D-03

 Cycle   7  Pass 1  IDiag  1:
 RMSU=  7.51D-06    CP:  8.86D-01  1.40D+00  6.42D-01  9.04D-01  1.03D+00
                    CP:  9.61D-01
 E= -1119.79758181683     Delta-E=       -0.000032021442 Rises=F Damp=F
 DIIS: error= 9.12D-05 at cycle   7 NSaved=   7.
 NSaved= 7 IEnMin= 7 EnMin= -1119.79758181683     IErMin= 7 ErrMin= 9.12D-05
 ErrMax= 9.12D-05  0.00D+00 EMaxC= 1.00D-01 BMatC= 1.56D-06 BMatP= 2.60D-05
 IDIUse=1 WtCom= 1.00D+00 WtEn= 0.00D+00
 Coeff-Com:  0.485D-02-0.108D-01-0.189D-01-0.242D-01 0.678D-01 0.266D+00
 Coeff-Com:  0.716D+00
 Coeff:      0.485D-02-0.108D-01-0.189D-01-0.242D-01 0.678D-01 0.266D+00
 Coeff:      0.716D+00
 Gap=     0.216 Goal=   None    Shift=    0.000
 RMSDP=4.79D-06 MaxDP=1.88D-04 DE=-3.20D-05 OVMax= 9.63D-04

 Cycle   8  Pass 1  IDiag  1:
 RMSU=  3.11D-06    CP:  8.86D-01  1.40D+00  6.42D-01  9.09D-01  1.05D+00
                    CP:  1.07D+00  9.71D-01
 E= -1119.79758442225     Delta-E=       -0.000002605418 Rises=F Damp=F
 DIIS: error= 2.94D-05 at cycle   8 NSaved=   8.
 NSaved= 8 IEnMin= 8 EnMin= -1119.79758442225     IErMin= 8 ErrMin= 2.94D-05
 ErrMax= 2.94D-05  0.00D+00 EMaxC= 1.00D-01 BMatC= 4.54D-07 BMatP= 1.56D-06
 IDIUse=1 WtCom= 1.00D+00 WtEn= 0.00D+00
 Coeff-Com: -0.200D-03 0.507D-03-0.275D-03-0.484D-02-0.375D-01-0.729D-01
 Coeff-Com:  0.327D+00 0.789D+00
 Coeff:     -0.200D-03 0.507D-03-0.275D-03-0.484D-02-0.375D-01-0.729D-01
 Coeff:      0.327D+00 0.789D+00
 Gap=     0.216 Goal=   None    Shift=    0.000
 RMSDP=4.30D-06 MaxDP=3.59D-04 DE=-2.61D-06 OVMax= 5.84D-04

 Cycle   9  Pass 1  IDiag  1:
 RMSU=  1.22D-06    CP:  8.86D-01  1.40D+00  6.40D-01  9.16D-01  1.07D+00
                    CP:  1.11D+00  1.18D+00  8.74D-01
 E= -1119.79758514985     Delta-E=       -0.000000727598 Rises=F Damp=F
 DIIS: error= 8.99D-06 at cycle   9 NSaved=   9.
 NSaved= 9 IEnMin= 9 EnMin= -1119.79758514985     IErMin= 9 ErrMin= 8.99D-06
 ErrMax= 8.99D-06  0.00D+00 EMaxC= 1.00D-01 BMatC= 5.17D-08 BMatP= 4.54D-07
 IDIUse=1 WtCom= 1.00D+00 WtEn= 0.00D+00
 Coeff-Com: -0.647D-03 0.146D-02 0.201D-02 0.467D-03-0.231D-01-0.659D-01
 Coeff-Com:  0.834D-01 0.352D+00 0.650D+00
 Coeff:     -0.647D-03 0.146D-02 0.201D-02 0.467D-03-0.231D-01-0.659D-01
 Coeff:      0.834D-01 0.352D+00 0.650D+00
 Gap=     0.216 Goal=   None    Shift=    0.000
 RMSDP=1.45D-06 MaxDP=1.06D-04 DE=-7.28D-07 OVMax= 1.42D-04

 Cycle  10  Pass 1  IDiag  1:
 RMSU=  5.88D-07    CP:  8.86D-01  1.40D+00  6.40D-01  9.17D-01  1.08D+00
                    CP:  1.12D+00  1.21D+00  1.03D+00  9.86D-01
 E= -1119.79758522576     Delta-E=       -0.000000075908 Rises=F Damp=F
 DIIS: error= 7.75D-06 at cycle  10 NSaved=  10.
 NSaved=10 IEnMin=10 EnMin= -1119.79758522576     IErMin=10 ErrMin= 7.75D-06
 ErrMax= 7.75D-06  0.00D+00 EMaxC= 1.00D-01 BMatC= 5.63D-09 BMatP= 5.17D-08
 IDIUse=1 WtCom= 1.00D+00 WtEn= 0.00D+00
 Coeff-Com: -0.193D-03 0.423D-03 0.732D-03 0.930D-03-0.691D-03-0.118D-01
 Coeff-Com: -0.249D-01-0.181D-01 0.205D+00 0.849D+00
 Coeff:     -0.193D-03 0.423D-03 0.732D-03 0.930D-03-0.691D-03-0.118D-01
 Coeff:     -0.249D-01-0.181D-01 0.205D+00 0.849D+00
 Gap=     0.216 Goal=   None    Shift=    0.000
 RMSDP=4.54D-07 MaxDP=2.67D-05 DE=-7.59D-08 OVMax= 1.51D-04

 Cycle  11  Pass 1  IDiag  1:
 RMSU=  1.89D-07    CP:  8.86D-01  1.40D+00  6.39D-01  9.18D-01  1.08D+00
                    CP:  1.12D+00  1.24D+00  1.05D+00  1.20D+00  1.04D+00
 E= -1119.79758524277     Delta-E=       -0.000000017015 Rises=F Damp=F
 DIIS: error= 2.49D-06 at cycle  11 NSaved=  11.
 NSaved=11 IEnMin=11 EnMin= -1119.79758524277     IErMin=11 ErrMin= 2.49D-06
 ErrMax= 2.49D-06  0.00D+00 EMaxC= 1.00D-01 BMatC= 2.96D-09 BMatP= 5.63D-09
 IDIUse=1 WtCom= 1.00D+00 WtEn= 0.00D+00
 Coeff-Com:  0.219D-04-0.542D-04-0.281D-04 0.261D-03 0.343D-02 0.494D-02
 Coeff-Com: -0.253D-01-0.661D-01-0.482D-01 0.467D+00 0.664D+00
 Coeff:      0.219D-04-0.542D-04-0.281D-04 0.261D-03 0.343D-02 0.494D-02
 Coeff:     -0.253D-01-0.661D-01-0.482D-01 0.467D+00 0.664D+00
 Gap=     0.216 Goal=   None    Shift=    0.000
 RMSDP=2.50D-07 MaxDP=1.44D-05 DE=-1.70D-08 OVMax= 4.57D-05

 Cycle  12  Pass 1  IDiag  1:
 RMSU=  9.33D-08    CP:  8.86D-01  1.40D+00  6.39D-01  9.18D-01  1.08D+00
                    CP:  1.12D+00  1.24D+00  1.08D+00  1.25D+00  1.27D+00
                    CP:  1.01D+00
 E= -1119.79758524734     Delta-E=       -0.000000004567 Rises=F Damp=F
 DIIS: error= 1.08D-06 at cycle  12 NSaved=  12.
 NSaved=12 IEnMin=12 EnMin= -1119.79758524734     IErMin=12 ErrMin= 1.08D-06
 ErrMax= 1.08D-06  0.00D+00 EMaxC= 1.00D-01 BMatC= 2.31D-10 BMatP= 2.96D-09
 IDIUse=1 WtCom= 1.00D+00 WtEn= 0.00D+00
 Coeff-Com:  0.428D-04-0.958D-04-0.150D-03-0.108D-03 0.127D-02 0.414D-02
 Coeff-Com: -0.237D-02-0.147D-01-0.753D-01 0.261D-01 0.177D+00 0.884D+00
 Coeff:      0.428D-04-0.958D-04-0.150D-03-0.108D-03 0.127D-02 0.414D-02
 Coeff:     -0.237D-02-0.147D-01-0.753D-01 0.261D-01 0.177D+00 0.884D+00
 Gap=     0.216 Goal=   None    Shift=    0.000
 RMSDP=8.89D-08 MaxDP=4.34D-06 DE=-4.57D-09 OVMax= 2.67D-05

 Cycle  13  Pass 1  IDiag  1:
 RMSU=  3.17D-08    CP:  8.86D-01  1.40D+00  6.39D-01  9.18D-01  1.08D+00
                    CP:  1.12D+00  1.24D+00  1.09D+00  1.27D+00  1.36D+00
                    CP:  1.21D+00  1.25D+00
 E= -1119.79758524804     Delta-E=       -0.000000000706 Rises=F Damp=F
 DIIS: error= 3.73D-07 at cycle  13 NSaved=  13.
 NSaved=13 IEnMin=13 EnMin= -1119.79758524804     IErMin=13 ErrMin= 3.73D-07
 ErrMax= 3.73D-07  0.00D+00 EMaxC= 1.00D-01 BMatC= 5.26D-11 BMatP= 2.31D-10
 IDIUse=1 WtCom= 1.00D+00 WtEn= 0.00D+00
 Coeff-Com:  0.804D-05-0.173D-04-0.376D-04-0.793D-04-0.222D-03 0.551D-03
 Coeff-Com:  0.332D-02 0.736D-02-0.239D-01-0.601D-01-0.737D-01 0.316D+00
 Coeff-Com:  0.831D+00
 Coeff:      0.804D-05-0.173D-04-0.376D-04-0.793D-04-0.222D-03 0.551D-03
 Coeff:      0.332D-02 0.736D-02-0.239D-01-0.601D-01-0.737D-01 0.316D+00
 Coeff:      0.831D+00
 Gap=     0.216 Goal=   None    Shift=    0.000
 RMSDP=4.59D-08 MaxDP=2.25D-06 DE=-7.06D-10 OVMax= 1.02D-05

 Cycle  14  Pass 1  IDiag  1:
 RMSU=  1.36D-08    CP:  8.86D-01  1.40D+00  6.39D-01  9.18D-01  1.08D+00
                    CP:  1.12D+00  1.24D+00  1.10D+00  1.27D+00  1.40D+00
                    CP:  1.28D+00  1.43D+00  1.08D+00
 E= -1119.79758524816     Delta-E=       -0.000000000111 Rises=F Damp=F
 DIIS: error= 2.03D-07 at cycle  14 NSaved=  14.
 NSaved=14 IEnMin=14 EnMin= -1119.79758524816     IErMin=14 ErrMin= 2.03D-07
 ErrMax= 2.03D-07  0.00D+00 EMaxC= 1.00D-01 BMatC= 6.60D-12 BMatP= 5.26D-11
 IDIUse=1 WtCom= 1.00D+00 WtEn= 0.00D+00
 Coeff-Com: -0.180D-05 0.444D-05 0.263D-05-0.224D-04-0.261D-03-0.281D-03
 Coeff-Com:  0.167D-02 0.522D-02-0.738D-04-0.258D-01-0.610D-01 0.476D-02
 Coeff-Com:  0.334D+00 0.742D+00
 Coeff:     -0.180D-05 0.444D-05 0.263D-05-0.224D-04-0.261D-03-0.281D-03
 Coeff:      0.167D-02 0.522D-02-0.738D-04-0.258D-01-0.610D-01 0.476D-02
 Coeff:      0.334D+00 0.742D+00
 Gap=     0.216 Goal=   None    Shift=    0.000
 RMSDP=1.29D-08 MaxDP=6.00D-07 DE=-1.11D-10 OVMax= 2.76D-06

 Cycle  15  Pass 1  IDiag  1:
 RMSU=  5.12D-09    CP:  8.86D-01  1.40D+00  6.39D-01  9.18D-01  1.08D+00
                    CP:  1.12D+00  1.24D+00  1.10D+00  1.27D+00  1.41D+00
                    CP:  1.30D+00  1.49D+00  1.24D+00  1.04D+00
 E= -1119.79758524815     Delta-E=        0.000000000003 Rises=F Damp=F
 DIIS: error= 4.26D-08 at cycle  15 NSaved=  15.
 NSaved=15 IEnMin=14 EnMin= -1119.79758524816     IErMin=15 ErrMin= 4.26D-08
 ErrMax= 4.26D-08  0.00D+00 EMaxC= 1.00D-01 BMatC= 5.40D-13 BMatP= 6.60D-12
 IDIUse=1 WtCom= 1.00D+00 WtEn= 0.00D+00
 Coeff-Com: -0.870D-06 0.202D-05 0.311D-05-0.139D-05-0.580D-04-0.116D-03
 Coeff-Com:  0.121D-03 0.807D-03 0.200D-02-0.101D-02-0.127D-01-0.235D-01
 Coeff-Com:  0.245D-01 0.235D+00 0.775D+00
 Coeff:     -0.870D-06 0.202D-05 0.311D-05-0.139D-05-0.580D-04-0.116D-03
 Coeff:      0.121D-03 0.807D-03 0.200D-02-0.101D-02-0.127D-01-0.235D-01
 Coeff:      0.245D-01 0.235D+00 0.775D+00
 Gap=     0.216 Goal=   None    Shift=    0.000
 RMSDP=3.16D-09 MaxDP=9.96D-08 DE= 3.41D-12 OVMax= 5.16D-07

 Error on total polarization charges =  0.01271
 SCF Done:  E(RCAM-B3LYP) =  -1119.79758525     A.U. after   15 cycles
            NFock= 15  Conv=0.32D-08     -V/T= 2.0028
 KE= 1.116670186328D+03 PE=-6.184490897284D+03 EE= 2.167333818631D+03
 Leave Link  502 at Thu Feb  6 14:04:07 2025, MaxMem= 25501368320 cpu:            1485.3 elap:              42.5
 (Enter /share/Apps/gaussian/g16/l801.exe)
 DoSCS=F DFT=T ScalE2(SS,OS)=  1.000000  1.000000
 ExpMin= 1.03D-01 ExpMax= 1.14D+04 ExpMxC= 1.72D+03 IAcc=3 IRadAn=         5 AccDes= 0.00D+00
 HarFok:  IExCor=  205 AccDes= 0.00D+00 IRadAn=         5 IDoV=-2 UseB2=F ITyADJ=14
 ICtDFT= 12500011 ScaDFX=  1.000000  1.000000  1.000000  1.000000
 GSVD:  LWork=        -713 too small for GESVD, short by        2990 words or        2990 for optimal perf.
 Largest valence mixing into a core orbital is  5.44D-05
 Largest core mixing into a valence orbital is  2.03D-05
 Range of M.O.s used for correlation:    24   498
 NBasis=   498 NAE=    82 NBE=    82 NFC=    23 NFV=     0
 NROrb=    475 NOA=    59 NOB=    59 NVA=   416 NVB=   416

 **** Warning!!: The largest alpha MO coefficient is  0.15315043D+02

 Leave Link  801 at Thu Feb  6 14:04:08 2025, MaxMem= 25501368320 cpu:              17.8 elap:               0.6
 (Enter /share/Apps/gaussian/g16/l914.exe)
 RHF ground state
 Two-electron integrals replicated using symmetry.
 MDV= 25501368320 DFT=T DoStab=F Mixed=T DoRPA=T DoScal=F NonHer=T
 NEqPCM:  Using non-equilibrium solvation (IEInf=1, Eps=  35.6880, EpsInf=   1.8069)
 Inv3:  Mode=1 IEnd=    26569728.
 Iteration    1 A*A^-1 deviation from unit magnitude is 2.89D-15 for   1360.
 Iteration    1 A*A^-1 deviation from orthogonality  is 1.82D-15 for   1969   1489.
 Iteration    1 A^-1*A deviation from unit magnitude is 3.11D-15 for   1918.
 Iteration    1 A^-1*A deviation from orthogonality  is 1.53D-15 for   1733    550.
 Making orbital integer symmetry assigments:
 Orbital symmetries:
       Occupied  (A) (A) (A) (A) (A) (A) (A) (A) (A) (A) (A) (A)
                 (A) (A) (A) (A) (A) (A) (A) (A) (A) (A) (A) (A)
                 (A) (A) (A) (A) (A) (A) (A) (A) (A) (A) (A) (A)
                 (A) (A) (A) (A) (A) (A) (A) (A) (A) (A) (A) (A)
                 (A) (A) (A) (A) (A) (A) (A) (A) (A) (A) (A) (A)
                 (A) (A) (A) (A) (A) (A) (A) (A) (A) (A) (A) (A)
                 (A) (A) (A) (A) (A) (A) (A) (A) (A) (A)
       Virtual   (A) (A) (A) (A) (A) (A) (A) (A) (A) (A) (A) (A)
                 (A) (A) (A) (A) (A) (A) (A) (A) (A) (A) (A) (A)
                 (A) (A) (A) (A) (A) (A) (A) (A) (A) (A) (A) (A)
                 (A) (A) (A) (A) (A) (A) (A) (A) (A) (A) (A) (A)
                 (A) (A) (A) (A) (A) (A) (A) (A) (A) (A) (A) (A)
                 (A) (A) (A) (A) (A) (A) (A) (A) (A) (A) (A) (A)
                 (A) (A) (A) (A) (A) (A) (A) (A) (A) (A) (A) (A)
                 (A) (A) (A) (A) (A) (A) (A) (A) (A) (A) (A) (A)
                 (A) (A) (A) (A) (A) (A) (A) (A) (A) (A) (A) (A)
                 (A) (A) (A) (A) (A) (A) (A) (A) (A) (A) (A) (A)
                 (A) (A) (A) (A) (A) (A) (A) (A) (A) (A) (A) (A)
                 (A) (A) (A) (A) (A) (A) (A) (A) (A) (A) (A) (A)
                 (A) (A) (A) (A) (A) (A) (A) (A) (A) (A) (A) (A)
                 (A) (A) (A) (A) (A) (A) (A) (A) (A) (A) (A) (A)
                 (A) (A) (A) (A) (A) (A) (A) (A) (A) (A) (A) (A)
                 (A) (A) (A) (A) (A) (A) (A) (A) (A) (A) (A) (A)
                 (A) (A) (A) (A) (A) (A) (A) (A) (A) (A) (A) (A)
                 (A) (A) (A) (A) (A) (A) (A) (A) (A) (A) (A) (A)
                 (A) (A) (A) (A) (A) (A) (A) (A) (A) (A) (A) (A)
                 (A) (A) (A) (A) (A) (A) (A) (A) (A) (A) (A) (A)
                 (A) (A) (A) (A) (A) (A) (A) (A) (A) (A) (A) (A)
                 (A) (A) (A) (A) (A) (A) (A) (A) (A) (A) (A) (A)
                 (A) (A) (A) (A) (A) (A) (A) (A) (A) (A) (A) (A)
                 (A) (A) (A) (A) (A) (A) (A) (A) (A) (A) (A) (A)
                 (A) (A) (A) (A) (A) (A) (A) (A) (A) (A) (A) (A)
                 (A) (A) (A) (A) (A) (A) (A) (A) (A) (A) (A) (A)
                 (A) (A) (A) (A) (A) (A) (A) (A) (A) (A) (A) (A)
                 (A) (A) (A) (A) (A) (A) (A) (A) (A) (A) (A) (A)
                 (A) (A) (A) (A) (A) (A) (A) (A) (A) (A) (A) (A)
                 (A) (A) (A) (A) (A) (A) (A) (A) (A) (A) (A) (A)
                 (A) (A) (A) (A) (A) (A) (A) (A) (A) (A) (A) (A)
                 (A) (A) (A) (A) (A) (A) (A) (A) (A) (A) (A) (A)
                 (A) (A) (A) (A) (A) (A) (A) (A) (A) (A) (A) (A)
                 (A) (A) (A) (A) (A) (A) (A) (A) (A) (A) (A) (A)
                 (A) (A) (A) (A) (A) (A) (A) (A)
    80 initial guesses have been made.
 Convergence on wavefunction:    0.001000000000000
 Davidson Disk Diagonalization:  ConvIn= 1.00D-03 SkipCon=T Conv= 1.00D-03.
 Max sub-space:  2000 roots to seek:    80 dimension of matrix:        49088
 Iteration     1 Dimension    80 NMult     0 NNew     80
 CISAX will form    80 AO SS matrices at one time.
 NMat=    80 NSing=    80 JSym2X= 0.
 FoFJK:  IHMeth= 1 ICntrl=       0 DoSepK=T KAlg= 0 I1Cent=           0 FoldK=F
 IRaf=         1 NMat=     160 IRICut=       1 DoRegI=T DoRafI=F ISym2E= 0 IDoP0=3 IntGTp=3.
 New state      1 was old state      3
 New state      2 was old state      1
 New state      3 was old state      2
 New state      4 was old state      7
 New state      5 was old state      9
 New state      6 was old state      4
 New state      7 was old state      5
 New state      8 was old state     14
 New state      9 was old state      6
 New state     10 was old state     12
 New state     12 was old state     19
 New state     13 was old state      8
 New state     14 was old state     13
 New state     15 was old state     18
 New state     17 was old state     10
 New state     18 was old state     17
 New state     19 was old state     28
 New state     20 was old state     25
 Excitation Energies [eV] at current iteration:
 Root      1 :     3.091058226931113
 Root      2 :     3.988732694235781
 Root      3 :     4.642978083227084
 Root      4 :     4.985681229153696
 Root      5 :     5.242935993438816
 Root      6 :     5.366913908396284
 Root      7 :     5.688352697004646
 Root      8 :     5.937178675750691
 Root      9 :     6.023749871155456
 Root     10 :     6.061773409531394
 Root     11 :     6.306043710323203
 Root     12 :     6.490058805687198
 Root     13 :     6.534569075075239
 Root     14 :     6.869701800144566
 Root     15 :     7.036389396630373
 Root     16 :     7.043199224894980
 Root     17 :     7.181415597483847
 Root     18 :     7.185595843969815
 Root     19 :     7.273223529184065
 Root     20 :     7.335964730517559
 Root     21 :     7.359492925523327
 Root     22 :     7.538180145221139
 Root     23 :     7.580687017495976
 Root     24 :     7.585505894785391
 Root     25 :     7.693063062762022
 Root     26 :     7.737239343449878
 Root     27 :     7.764079692301818
 Root     28 :     7.994892731207977
 Root     29 :     8.042248962322843
 Root     30 :     8.049394972591454
 Root     31 :     8.061559763513745
 Root     32 :     8.068330756861004
 Root     33 :     8.153552666946192
 Root     34 :     8.194067232294698
 Root     35 :     8.257119808989584
 Root     36 :     8.272270907474255
 Root     37 :     8.306523816944678
 Root     38 :     8.407944085266362
 Root     39 :     8.419585312714251
 Root     40 :     8.591947403630604
 Root     41 :     8.625902013313468
 Root     42 :     8.642786709709643
 Root     43 :     8.652132576118834
 Root     44 :     8.735520351438476
 Root     45 :     8.747144381144864
 Root     46 :     8.766624946415289
 Root     47 :     8.841025723362891
 Root     48 :     8.857247960176919
 Root     49 :     8.953601423079293
 Root     50 :     8.994049042016742
 Root     51 :     9.038942055561741
 Root     52 :     9.078018763507517
 Root     53 :     9.090648964896069
 Root     54 :     9.110283029195818
 Root     55 :     9.155291718245593
 Root     56 :     9.194029527312242
 Root     57 :     9.200192917550226
 Root     58 :     9.287657508624326
 Root     59 :     9.312024788560265
 Root     60 :     9.344328177644913
 Root     61 :     9.354548785886333
 Root     62 :     9.396933301475965
 Root     63 :     9.413821801588128
 Root     64 :     9.427922616279783
 Root     65 :     9.480037270683582
 Root     66 :     9.563086521710309
 Root     67 :     9.618968251672662
 Root     68 :     9.640852611799017
 Root     69 :     9.673302004462398
 Root     70 :     9.815060491324015
 Root     71 :     9.841697330783719
 Root     72 :     9.860680930516580
 Root     73 :     9.986784754855581
 Root     74 :    10.023961317316314
 Root     75 :    10.114210530411052
 Root     76 :    10.118920613857741
 Root     77 :    10.221704987582514
 Root     78 :    10.259490436868870
 Root     79 :    10.268301829603365
 Root     80 :    10.281026866728391
 Iteration     2 Dimension   120 NMult    80 NNew     40
 CISAX will form    40 AO SS matrices at one time.
 NMat=    40 NSing=    40 JSym2X= 0.
 Root      1 not converged, maximum delta is    0.025511955714013
 Root      2 not converged, maximum delta is    0.054012764782157
 Root      3 not converged, maximum delta is    0.053713711311354
 Root      4 not converged, maximum delta is    0.069072574639443
 Root      5 not converged, maximum delta is    0.363060843059867
 Root      6 not converged, maximum delta is    0.276194650558077
 Root      7 not converged, maximum delta is    0.139126085278043
 New state      8 was old state      9
 Root      8 not converged, maximum delta is    0.109385429701777
 New state      9 was old state      8
 Root      9 not converged, maximum delta is    0.111689964126960
 Root     10 not converged, maximum delta is    0.157904670072681
 New state     11 was old state     13
 Root     11 not converged, maximum delta is    0.277199980847709
 New state     12 was old state     11
 Root     12 not converged, maximum delta is    0.256151390674313
 New state     13 was old state     12
 Root     13 not converged, maximum delta is    0.204725363906902
 Root     14 not converged, maximum delta is    0.215123003769642
 New state     15 was old state     18
 Root     15 not converged, maximum delta is    0.196371891220527
 New state     16 was old state     15
 Root     16 not converged, maximum delta is    0.225331609968958
 New state     17 was old state     19
 Root     17 not converged, maximum delta is    0.304869289065293
 New state     18 was old state     16
 Root     18 not converged, maximum delta is    0.213409527344468
 New state     19 was old state     25
 Root     19 not converged, maximum delta is    0.186324066534918
 New state     20 was old state     17
 Root     20 not converged, maximum delta is    0.131888318784581
 Excitation Energies [eV] at current iteration:
 Root      1 :     2.958312332007640   Change is   -0.132745894923473
 Root      2 :     3.536517097773802   Change is   -0.452215596461979
 Root      3 :     4.472596196643271   Change is   -0.170381886583814
 Root      4 :     4.905333727353725   Change is   -0.080347501799971
 Root      5 :     4.992383877989070   Change is   -0.250552115449746
 Root      6 :     5.115683844699674   Change is   -0.251230063696610
 Root      7 :     5.422423080091388   Change is   -0.265929616913258
 Root      8 :     5.733390312060694   Change is   -0.290359559094762
 Root      9 :     5.882450358848816   Change is   -0.054728316901875
 Root     10 :     5.973808232294877   Change is   -0.087965177236517
 Root     11 :     5.996845360027996   Change is   -0.537723715047242
 Root     12 :     6.154453367420299   Change is   -0.151590342902905
 Root     13 :     6.288500685773663   Change is   -0.201558119913535
 Root     14 :     6.304734172415958   Change is   -0.564967627728608
 Root     15 :     6.546879619867053   Change is   -0.638716224102761
 Root     16 :     6.866156198435002   Change is   -0.170233198195371
 Root     17 :     6.947262814712701   Change is   -0.325960714471365
 Root     18 :     6.974052063776022   Change is   -0.069147161118958
 Root     19 :     7.120450779661002   Change is   -0.572612283101019
 Root     20 :     7.172568267660228   Change is   -0.008847329823619
 Iteration     3 Dimension   160 NMult   120 NNew     40
 CISAX will form    40 AO SS matrices at one time.
 NMat=    40 NSing=    40 JSym2X= 0.
 Root      1 not converged, maximum delta is    0.002645127447125
 Root      2 not converged, maximum delta is    0.003734920462768
 Root      3 not converged, maximum delta is    0.003143361038868
 Root      4 not converged, maximum delta is    0.014711583872338
 Root      5 not converged, maximum delta is    0.017399564591596
 Root      6 not converged, maximum delta is    0.018278338091261
 Root      7 not converged, maximum delta is    0.007986856467695
 Root      8 not converged, maximum delta is    0.011448286631870
 Root      9 not converged, maximum delta is    0.009327555455145
 Root     10 not converged, maximum delta is    0.114263337338165
 Root     11 not converged, maximum delta is    0.170654813853756
 Root     12 not converged, maximum delta is    0.066025091089689
 Root     13 not converged, maximum delta is    0.308808780162712
 Root     14 not converged, maximum delta is    0.282186888795532
 Root     15 not converged, maximum delta is    0.027017668131543
 Root     16 not converged, maximum delta is    0.231628725374809
 New state     17 was old state     19
 Root     17 not converged, maximum delta is    0.174546202713088
 New state     18 was old state     17
 Root     18 not converged, maximum delta is    0.137657501866106
 New state     19 was old state     18
 Root     19 not converged, maximum delta is    0.080796495674250
 Root     20 not converged, maximum delta is    0.595105470630952
 Excitation Energies [eV] at current iteration:
 Root      1 :     2.955863137837331   Change is   -0.002449194170309
 Root      2 :     3.517613697099887   Change is   -0.018903400673915
 Root      3 :     4.467766025079977   Change is   -0.004830171563293
 Root      4 :     4.902662658782220   Change is   -0.002671068571505
 Root      5 :     4.977689997475555   Change is   -0.014693880513515
 Root      6 :     5.105394706007123   Change is   -0.010289138692551
 Root      7 :     5.412629331099484   Change is   -0.009793748991905
 Root      8 :     5.715459249533026   Change is   -0.017931062527668
 Root      9 :     5.879098116800046   Change is   -0.003352242048769
 Root     10 :     5.969938907537874   Change is   -0.003869324757003
 Root     11 :     5.980138544211378   Change is   -0.016706815816618
 Root     12 :     6.133289489600896   Change is   -0.021163877819402
 Root     13 :     6.274753380568611   Change is   -0.013747305205052
 Root     14 :     6.287543935268386   Change is   -0.017190237147573
 Root     15 :     6.520153576682654   Change is   -0.026726043184400
 Root     16 :     6.832282462756218   Change is   -0.033873735678784
 Root     17 :     6.906016467971663   Change is   -0.214434311689339
 Root     18 :     6.934907297102367   Change is   -0.012355517610334
 Root     19 :     6.970408144530418   Change is   -0.003643919245605
 Root     20 :     7.063765015234592   Change is   -0.108803252425636
 Iteration     4 Dimension   200 NMult   160 NNew     40
 CISAX will form    40 AO SS matrices at one time.
 NMat=    40 NSing=    40 JSym2X= 0.
 Root      1 has converged.
 Root      2 has converged.
 Root      3 has converged.
 Root      4 not converged, maximum delta is    0.001138811697097
 Root      5 has converged.
 Root      6 not converged, maximum delta is    0.001065487004617
 Root      7 has converged.
 Root      8 has converged.
 Root      9 not converged, maximum delta is    0.003657193843726
 Root     10 not converged, maximum delta is    0.018795452620553
 Root     11 not converged, maximum delta is    0.027827623811292
 Root     12 not converged, maximum delta is    0.003655930922012
 Root     13 not converged, maximum delta is    0.013853896525624
 Root     14 not converged, maximum delta is    0.015066680014040
 Root     15 not converged, maximum delta is    0.003783068576645
 Root     16 not converged, maximum delta is    0.041223173167587
 Root     17 not converged, maximum delta is    0.033310365092986
 Root     18 not converged, maximum delta is    0.030534187543722
 Root     19 not converged, maximum delta is    0.010548227803369
 Root     20 not converged, maximum delta is    0.019182444339821
 Excitation Energies [eV] at current iteration:
 Root      1 :     2.955803675999035   Change is   -0.000059461838297
 Root      2 :     3.516424890746312   Change is   -0.001188806353576
 Root      3 :     4.467552963521157   Change is   -0.000213061558821
 Root      4 :     4.902465629714382   Change is   -0.000197029067838
 Root      5 :     4.976853805474639   Change is   -0.000836192000916
 Root      6 :     5.104719183785593   Change is   -0.000675522221529
 Root      7 :     5.411993551919137   Change is   -0.000635779180346
 Root      8 :     5.714688322099410   Change is   -0.000770927433616
 Root      9 :     5.878843665283151   Change is   -0.000254451516895
 Root     10 :     5.969520455979809   Change is   -0.000418451558065
 Root     11 :     5.979076472901859   Change is   -0.001062071309520
 Root     12 :     6.132081484453449   Change is   -0.001208005147447
 Root     13 :     6.273710934970523   Change is   -0.001042445598089
 Root     14 :     6.286961034747732   Change is   -0.000582900520654
 Root     15 :     6.517719069303519   Change is   -0.002434507379135
 Root     16 :     6.825528504714355   Change is   -0.006753958041863
 Root     17 :     6.896219983502487   Change is   -0.009796484469177
 Root     18 :     6.932477690430986   Change is   -0.002429606671380
 Root     19 :     6.969862940416057   Change is   -0.000545204114360
 Root     20 :     7.036684804681332   Change is   -0.027080210553260
 Iteration     5 Dimension   228 NMult   200 NNew     28
 CISAX will form    28 AO SS matrices at one time.
 NMat=    28 NSing=    28 JSym2X= 0.
 Root      1 has converged.
 Root      2 has converged.
 Root      3 has converged.
 Root      4 has converged.
 Root      5 has converged.
 Root      6 has converged.
 Root      7 has converged.
 Root      8 has converged.
 Root      9 has converged.
 Root     10 has converged.
 Root     11 not converged, maximum delta is    0.001235318909051
 Root     12 has converged.
 Root     13 has converged.
 Root     14 has converged.
 Root     15 has converged.
 Root     16 not converged, maximum delta is    0.001725825517296
 Root     17 not converged, maximum delta is    0.001781014788265
 Root     18 not converged, maximum delta is    0.001656057049026
 Root     19 not converged, maximum delta is    0.001473436526786
 Root     20 not converged, maximum delta is    0.002035306351951
 Excitation Energies [eV] at current iteration:
 Root      1 :     2.955803514942865   Change is   -0.000000161056170
 Root      2 :     3.516386958310536   Change is   -0.000037932435776
 Root      3 :     4.467551872903890   Change is   -0.000001090617267
 Root      4 :     4.902454005220679   Change is   -0.000011624493704
 Root      5 :     4.976844372951195   Change is   -0.000009432523444
 Root      6 :     5.104694744239072   Change is   -0.000024439546522
 Root      7 :     5.411978644173987   Change is   -0.000014907745150
 Root      8 :     5.714660475814134   Change is   -0.000027846285275
 Root      9 :     5.878822940336267   Change is   -0.000020724946884
 Root     10 :     5.969496221123513   Change is   -0.000024234856296
 Root     11 :     5.979028769193968   Change is   -0.000047703707891
 Root     12 :     6.132023458597411   Change is   -0.000058025856039
 Root     13 :     6.273654514397037   Change is   -0.000056420573485
 Root     14 :     6.286925008882431   Change is   -0.000036025865300
 Root     15 :     6.517576080991067   Change is   -0.000142988312452
 Root     16 :     6.825211289435980   Change is   -0.000317215278376
 Root     17 :     6.895801998856664   Change is   -0.000417984645823
 Root     18 :     6.932236592753526   Change is   -0.000241097677460
 Root     19 :     6.969814618518689   Change is   -0.000048321897369
 Root     20 :     7.035309122542029   Change is   -0.001375682139303
 Iteration     6 Dimension   240 NMult   228 NNew     12
 CISAX will form    12 AO SS matrices at one time.
 NMat=    12 NSing=    12 JSym2X= 0.
 Root      1 has converged.
 Root      2 has converged.
 Root      3 has converged.
 Root      4 has converged.
 Root      5 has converged.
 Root      6 has converged.
 Root      7 has converged.
 Root      8 has converged.
 Root      9 has converged.
 Root     10 has converged.
 Root     11 has converged.
 Root     12 has converged.
 Root     13 has converged.
 Root     14 has converged.
 Root     15 has converged.
 Root     16 has converged.
 Root     17 has converged.
 Root     18 has converged.
 Root     19 has converged.
 Root     20 has converged.
 Excitation Energies [eV] at current iteration:
 Root      1 :     2.955803388242591   Change is   -0.000000126700274
 Root      2 :     3.516385291014459   Change is   -0.000001667296077
 Root      3 :     4.467551599682062   Change is   -0.000000273221828
 Root      4 :     4.902453982626991   Change is   -0.000000022593688
 Root      5 :     4.976843190253658   Change is   -0.000001182697537
 Root      6 :     5.104694620489343   Change is   -0.000000123749729
 Root      7 :     5.411977233852673   Change is   -0.000001410321314
 Root      8 :     5.714659539713059   Change is   -0.000000936101075
 Root      9 :     5.878822805493407   Change is   -0.000000134842861
 Root     10 :     5.969495903207277   Change is   -0.000000317916235
 Root     11 :     5.979027122307812   Change is   -0.000001646886156
 Root     12 :     6.132023292274289   Change is   -0.000000166323122
 Root     13 :     6.273654290549955   Change is   -0.000000223847083
 Root     14 :     6.286924848323483   Change is   -0.000000160558949
 Root     15 :     6.517573118153585   Change is   -0.000002962837482
 Root     16 :     6.825194681157682   Change is   -0.000016608278297
 Root     17 :     6.895779135478123   Change is   -0.000022863378541
 Root     18 :     6.932209667438853   Change is   -0.000026925314674
 Root     19 :     6.969808998717807   Change is   -0.000005619800882
 Root     20 :     7.035223913765122   Change is   -0.000085208776907
 Convergence achieved on expansion vectors.
 ***********************************************************************
 Excited states from <AA,BB:AA,BB> singles matrix:
 ***********************************************************************
 
 1PDM for each excited state written to RWF  633
 Ground to excited state transition densities written to RWF  633
 Ground to excited state transition electric dipole moments (Au):
       state          X           Y           Z        Dip. S.      Osc.
         1        -0.1454     -0.0105     -0.0143      0.0215      0.0016
         2         3.4457      0.2808      0.0081     11.9515      1.0296
         3        -0.2597      0.3355     -0.0058      0.1801      0.0197
         4        -0.0621      0.0269     -0.0161      0.0048      0.0006
         5         0.6511     -1.0187      0.0064      1.4619      0.1782
         6         0.7136      0.6786     -0.0130      0.9699      0.1213
         7         0.0879     -0.2699      0.0321      0.0816      0.0108
         8         0.5507      0.9362      0.0681      1.1843      0.1658
         9         0.1120      0.0065     -0.0249      0.0132      0.0019
        10         0.1330     -0.2646      0.0052      0.0877      0.0128
        11         0.4024     -0.4994      0.0226      0.4119      0.0603
        12        -0.6792      1.0079     -0.0172      1.4775      0.2220
        13         0.4210     -0.9681      0.0322      1.1156      0.1715
        14        -0.1258      0.4980      0.0289      0.2647      0.0408
        15         0.2950      0.7724     -0.0090      0.6837      0.1092
        16         1.3895      0.2015      0.0030      1.9713      0.3296
        17         1.0070     -0.2594     -0.0551      1.0843      0.1832
        18         0.2976      0.0982      0.0385      0.0997      0.0169
        19         0.1389      0.0549      0.1561      0.0467      0.0080
        20        -0.5527     -1.5040      0.0215      2.5680      0.4426
 Ground to excited state transition velocity dipole moments (Au):
       state          X           Y           Z        Dip. S.      Osc.
         1         0.0153      0.0009     -0.0008      0.0002      0.0014
         2        -0.4347     -0.0283     -0.0006      0.1897      0.9788
         3         0.0435     -0.0586      0.0010      0.0053      0.0216
         4         0.0114     -0.0049      0.0027      0.0002      0.0006
         5        -0.1117      0.1855     -0.0006      0.0469      0.1709
         6        -0.1373     -0.1259      0.0028      0.0347      0.1233
         7        -0.0140      0.0485     -0.0074      0.0026      0.0087
         8        -0.1107     -0.1991     -0.0149      0.0521      0.1655
         9        -0.0235     -0.0010      0.0022      0.0006      0.0017
        10        -0.0300      0.0581     -0.0035      0.0043      0.0130
        11        -0.0894      0.1095     -0.0040      0.0200      0.0607
        12         0.1534     -0.2207      0.0033      0.0723      0.2138
        13        -0.1039      0.2167     -0.0109      0.0579      0.1674
        14         0.0333     -0.1119     -0.0127      0.0138      0.0398
        15        -0.0707     -0.1819      0.0022      0.0381      0.1060
        16        -0.3443     -0.0546     -0.0004      0.1215      0.3229
        17        -0.2545      0.0681      0.0152      0.0697      0.1833
        18        -0.0751     -0.0247     -0.0185      0.0066      0.0173
        19        -0.0354     -0.0138     -0.0382      0.0029      0.0076
        20         0.1423      0.3863     -0.0059      0.1695      0.4371
 Ground to excited state transition magnetic dipole moments (Au):
       state          X           Y           Z
         1         0.8624      0.4341     -0.0179
         2         0.0199      0.0519      0.2057
         3         0.0033     -0.0133     -0.8927
         4        -0.0085     -0.0086     -0.2918
         5        -0.0052      0.0346      1.2586
         6         0.0064      0.0068     -1.3595
         7        -0.0082     -0.0341      1.1606
         8        -0.0092     -0.0891      1.4033
         9        -0.0682     -0.0500      0.2275
        10        -0.0963     -0.1191      0.6176
        11         0.0445      0.0621      1.2107
        12        -0.0092     -0.0137     -0.8616
        13         0.3148      0.1775      0.3623
        14         0.5768      0.2902     -0.1640
        15        -0.0118     -0.0151     -1.0261
        16         0.0028      0.0043     -0.6860
        17        -0.0266      0.0349     -1.6185
        18         0.1448     -0.1133     -0.5445
        19         0.1010      0.4813     -0.3006
        20         0.0080      0.0561      3.2943
 Ground to excited state transition velocity quadrupole moments (Au):
       state          XX          YY          ZZ          XY          XZ          YZ
         1         0.0119      0.0168     -0.0028     -0.0021     -0.0043      0.0680
         2        -0.9290     -0.5580     -0.0116     -0.0366     -0.0049      0.0242
         3         0.5063     -0.0638     -0.0070     -0.2352      0.0054      0.0010
         4        -0.2380     -0.0391      0.0020     -0.4355     -0.0110     -0.0017
         5         0.6185     -0.1065      0.0180      1.1112     -0.0206      0.0069
         6        -0.5312      0.0410     -0.0064     -0.9035      0.0009      0.0015
         7        -2.0591     -0.1340     -0.0111      0.8700      0.0074      0.0028
         8         0.8874      0.0627      0.0028      0.8217      0.0716      0.0162
         9        -0.1735     -0.0479     -0.0008      0.1413     -0.0147     -0.0118
        10        -1.2351     -0.1785     -0.0197      0.5690     -0.0341      0.0139
        11        -2.3601     -0.3504     -0.0262      1.1571      0.0078      0.0071
        12         2.3070      0.0497     -0.0184     -2.2494      0.0347     -0.0069
        13        -1.6100      0.1978      0.0423      1.7996     -0.0617      0.0451
        14         0.8684     -0.1332     -0.0182     -0.9433     -0.0213      0.0909
        15        -0.6956      0.5077     -0.0021     -1.5394      0.0178     -0.0102
        16         2.8202      0.3055      0.0159     -0.0131      0.0126     -0.0024
        17         1.4122      0.3060      0.0105     -0.9113     -0.0276     -0.0121
        18         0.1522      0.1545      0.0069     -0.3183      0.0978      0.0373
        19        -0.0214      0.1040     -0.0041     -0.1770     -0.3999      0.0455
        20         3.8375     -1.5979      0.0239      2.5069     -0.0339      0.0256
 <0|del|b> * <b|rxdel|0> + <0|del|b> * <b|delr+rdel|0>
 Rotatory Strengths (R) in cgs (10**-40 erg-esu-cm/Gauss)
       state          XX          YY          ZZ    R(velocity)    E-M Angle
         1         1.3789     46.3662     40.8602     29.5351       23.29
         2        -4.6665    -52.8505      1.4673    -18.6832       96.34
         3        -0.1145     -1.0419      1.2169      0.0202       90.00
         4        -3.9156      0.5392      0.0348     -1.1139      103.26
         5        17.1348     -0.5447      7.6393      8.0765       88.68
         6       -13.3548     -4.4531     -3.0797     -6.9625       91.25
         7       -30.4650     -3.7112     -2.0282    -12.0681       99.89
         8        -1.9654    -15.8955     10.6245     -2.4121       90.38
         9         1.3995      3.3926      2.2772      2.3565       67.89
        10       -14.7098      3.7128     -9.0185     -6.6718       98.57
        11        -5.4854     -7.7692      6.9281     -2.1089       90.66
        12         0.7286      3.2846     -7.8427     -1.2765       90.30
        13        43.4573    -33.3700     -4.4862      1.8670       89.15
        14       -31.8807     18.9850    -21.2258    -11.3738       98.19
        15         0.6401      3.9426     -0.5603      1.3408       89.61
        16         0.9878      0.1449     -3.8134     -0.8936       90.23
        17       -47.8461     -1.2755      5.8610    -14.4202       92.08
        18        29.3904    -13.1748    -10.6800      1.8452       87.55
        19         8.3333     -0.6537     -4.2742      1.1351       87.72
        20         0.6689      0.1775      8.3335      3.0599       89.86
 1/2[<0|r|b>*<b|rxdel|0> + (<0|rxdel|b>*<b|r|0>)*]
 Rotatory Strengths (R) in cgs (10**-40 erg-esu-cm/Gauss)
       state          XX          YY          ZZ     R(length)
         1        88.6939      3.2122     -0.1815     30.5749
         2       -48.5158    -10.3005     -1.1810    -19.9991
         3         0.6080      3.1649     -3.6811      0.0306
         4        -0.3748      0.1628     -3.3165     -1.1762
         5         2.3758     24.9443     -5.6683      7.2173
         6        -3.2336     -3.2445    -12.5018     -6.3266
         7         0.5128     -6.5086    -26.3328    -10.7762
         8         3.6008     58.9868    -67.5815     -1.6646
         9         5.4038      0.2290      3.9978      3.2102
        10         9.0541    -22.2948     -2.2823     -5.1743
        11       -12.6713     21.9410    -19.3587     -3.3630
        12        -4.4390      9.7882    -10.4888     -1.7132
        13       -93.7385    121.4936     -8.2580      6.4991
        14        51.2936   -102.1869      3.3551    -15.8461
        15         2.4643      8.2485     -6.5297      1.3944
        16        -2.7410     -0.6074      1.4614     -0.6290
        17        18.9774      6.3953    -63.0161    -12.5478
        18       -30.4655      7.8723     14.8403     -2.5843
        19        -9.9222    -18.7043     33.1716      1.5151
        20         3.1300     59.6675    -50.0416      4.2519
  1/2[<0|del|b>*<b|r|0> + (<0|r|b>*<b|del|0>)*] (Au)
       state          X           Y           Z        Dip. S.   Osc.(frdel)
         1        -0.0022     -0.0000      0.0000      0.0022      0.0015
         2        -1.4977     -0.0080     -0.0000      1.5057      1.0038
         3        -0.0113     -0.0196     -0.0000      0.0310      0.0206
         4        -0.0007     -0.0001     -0.0000      0.0009      0.0006
         5        -0.0727     -0.1890     -0.0000      0.2617      0.1745
         6        -0.0980     -0.0854     -0.0000      0.1835      0.1223
         7        -0.0012     -0.0131     -0.0002      0.0146      0.0097
         8        -0.0610     -0.1864     -0.0010      0.2484      0.1656
         9        -0.0026     -0.0000     -0.0001      0.0027      0.0018
        10        -0.0040     -0.0154     -0.0000      0.0194      0.0129
        11        -0.0360     -0.0547     -0.0001      0.0908      0.0605
        12        -0.1042     -0.2224     -0.0001      0.3267      0.2178
        13        -0.0437     -0.2098     -0.0004      0.2539      0.1693
        14        -0.0042     -0.0557     -0.0004      0.0603      0.0402
        15        -0.0209     -0.1405     -0.0000      0.1614      0.1076
        16        -0.4783     -0.0110     -0.0000      0.4893      0.3262
        17        -0.2563     -0.0177     -0.0008      0.2748      0.1832
        18        -0.0224     -0.0024     -0.0007      0.0255      0.0170
        19        -0.0049     -0.0008     -0.0060      0.0116      0.0078
        20        -0.0786     -0.5810     -0.0001      0.6598      0.4399

 Excitation energies and oscillator strengths:
 
 Excited State   1:      Singlet-A      2.9558 eV  419.46 nm  f=0.0016  <S**2>=0.000
      80 -> 83         0.68167
      80 -> 86         0.10704
      80 -> 87        -0.10668
[...]
     3  C    0.000211  -0.000319   0.003144   0.000037  -0.000001  -0.000007
     4  C   -0.000233  -0.000009   0.000912   0.000001   0.000000  -0.000000
     5  C    0.000022  -0.000003  -0.000394   0.000000  -0.000000   0.000001
     6  C   -0.000016   0.000000  -0.000074  -0.000000   0.000000   0.000000
     7  C   -0.000091  -0.000002   0.000084   0.000000   0.000000  -0.000000
     8  C   -0.000001   0.000000  -0.000001  -0.000000   0.000000   0.000000
     9  C    0.000033  -0.000000   0.000000   0.000000  -0.000000  -0.000000
    10  H    0.002381  -0.000027   0.000083   0.000012  -0.000005  -0.000000
    11  C    0.000002  -0.000000   0.000000   0.000000  -0.000000  -0.000000
    12  H   -0.000000   0.000000  -0.000000  -0.000000   0.000000   0.000000
    13  H   -0.000013   0.000000  -0.000000  -0.000000   0.000000   0.000000
    14  H    0.000000  -0.000000   0.000000   0.000000  -0.000000  -0.000000
    15  C   -0.055197   0.039462  -0.073376  -0.084789   0.009044   0.008151
    16  C    0.414207  -0.050523   0.007884  -0.041016  -0.027046  -0.000515
    17  C    0.014834   0.394444   0.438498  -0.011400  -0.001223  -0.024704
    18  C   -0.040065  -0.059301  -0.001671   0.412143   0.427953   0.004211
    19  H    0.526936  -0.002654   0.000199   0.010656  -0.008071   0.000042
    20  C   -0.002654   4.992358  -0.048740   0.356750   0.004783   0.426447
    21  H    0.000199  -0.048740   0.516401   0.011406   0.000025  -0.007586
    22  C    0.010656   0.356750   0.011406   5.672919  -0.056169  -0.056863
    23  H   -0.008071   0.004783   0.000025  -0.056169   0.515954  -0.000268
    24  H    0.000042   0.426447  -0.007586  -0.056863  -0.000268   0.514954
    25  N   -0.000000   0.000000  -0.000004  -0.000000   0.000000   0.000000
    26  C    0.000000  -0.000000  -0.000000   0.000000   0.000000   0.000000
    27  H    0.000000  -0.000000   0.000000  -0.000000  -0.000000  -0.000000
    28  H   -0.000000   0.000000   0.000000   0.000000  -0.000000  -0.000000
    29  H   -0.000000   0.000000  -0.000001  -0.000000   0.000000   0.000000
    30  C    0.000001   0.000003   0.000378  -0.000000  -0.000000  -0.000000
    31  H    0.000000  -0.000000  -0.000007   0.000000  -0.000000   0.000000
    32  H    0.000004  -0.000048   0.002708   0.000003  -0.000000  -0.000004
    33  H    0.000000  -0.000000  -0.000010   0.000000  -0.000000  -0.000000
    34  C   -0.000062  -0.030242  -0.000030   0.308383  -0.005670  -0.003516
    35  F    0.000000   0.005852  -0.000027  -0.067353   0.000383   0.007765
    36  F   -0.000000   0.003878  -0.000002  -0.083979   0.000581   0.000866
    37  F   -0.000021   0.005808  -0.000000  -0.058072   0.009455   0.000363
              25         26         27         28         29         30
     1  N    0.002257  -0.000057   0.000004   0.000004  -0.000002   0.002788
     2  N   -0.000001   0.000004  -0.000000  -0.000000   0.000000  -0.000247
     3  C   -0.050176   0.008746  -0.000322  -0.000333   0.001419  -0.086450
     4  C   -0.058522   0.006916   0.000585   0.000579  -0.001058   0.027415
     5  C    0.438622  -0.061925   0.003620   0.003574  -0.015448   0.318079
     6  C    0.397648  -0.066084  -0.005822  -0.005741   0.007107  -0.004147
     7  C    0.006974  -0.000218   0.000003   0.000005  -0.000004   0.000656
     8  C   -0.054226  -0.005058   0.001378   0.001349   0.000230  -0.000387
     9  C   -0.000023   0.000039  -0.000028  -0.000028   0.000001  -0.000006
    10  H   -0.000102   0.000014   0.000000   0.000000  -0.000001   0.000053
    11  C    0.004494  -0.000117   0.000056   0.000056   0.000014   0.000013
    12  H   -0.005502   0.003557  -0.000411  -0.000412   0.000004  -0.000016
    13  H    0.000004  -0.000000   0.000000   0.000000   0.000000  -0.000000
    14  H   -0.000161  -0.000031   0.000002   0.000002  -0.000001   0.000000
    15  C    0.000001  -0.000000   0.000000   0.000000  -0.000000  -0.000004
    16  C   -0.000000   0.000000  -0.000000   0.000000  -0.000000  -0.000000
    17  C   -0.000000  -0.000000   0.000000   0.000000   0.000000  -0.000126
    18  C    0.000000  -0.000000   0.000000  -0.000000   0.000000  -0.000000
    19  H   -0.000000   0.000000   0.000000  -0.000000  -0.000000   0.000001
    20  C    0.000000  -0.000000  -0.000000   0.000000   0.000000   0.000003
    21  H   -0.000004  -0.000000   0.000000   0.000000  -0.000001   0.000378
    22  C   -0.000000   0.000000  -0.000000   0.000000  -0.000000  -0.000000
    23  H    0.000000   0.000000  -0.000000  -0.000000   0.000000  -0.000000
    24  H    0.000000   0.000000  -0.000000  -0.000000   0.000000  -0.000000
    25  N    6.636817   0.288088  -0.034112  -0.034146  -0.016025  -0.050720
    26  C    0.288088   4.781363   0.409796   0.409781   0.406862  -0.005881
    27  H   -0.034112   0.409796   0.530458  -0.034261  -0.021653   0.000001
    28  H   -0.034146   0.409781  -0.034261   0.530451  -0.021656   0.000022
    29  H   -0.016025   0.406862  -0.021653  -0.021656   0.509224   0.003278
    30  C   -0.050720  -0.005881   0.000001   0.000022   0.003278   4.845359
    31  H   -0.002623  -0.000659   0.000084  -0.000035  -0.000976   0.409506
    32  H    0.003924   0.000482  -0.000016  -0.000011   0.000218   0.409509
    33  H   -0.002601  -0.000671  -0.000029   0.000081  -0.000958   0.409416
    34  C   -0.000000   0.000000  -0.000000   0.000000  -0.000000  -0.000000
    35  F    0.000000   0.000000  -0.000000   0.000000   0.000000  -0.000000
    36  F   -0.000000  -0.000000   0.000000  -0.000000   0.000000  -0.000000
    37  F    0.000000   0.000000  -0.000000   0.000000   0.000000  -0.000000
              31         32         33         34         35         36
     1  N   -0.000072   0.012193  -0.000047   0.000001   0.000000  -0.000000
     2  N    0.000017  -0.000779   0.000016  -0.000011  -0.000000  -0.000000
     3  C    0.001386  -0.015891   0.001287   0.000000   0.000000  -0.000000
     4  C    0.000261   0.003415   0.000270   0.000000  -0.000000  -0.000000
     5  C   -0.040143  -0.025124  -0.040128   0.000000   0.000000   0.000000
     6  C   -0.000556  -0.000900  -0.000564  -0.000000   0.000000   0.000000
     7  C    0.000023   0.000100   0.000024  -0.000000   0.000000  -0.000000
     8  C   -0.000011  -0.000005  -0.000011  -0.000000   0.000000   0.000000
     9  C   -0.000001   0.000000  -0.000001   0.000000   0.000000  -0.000000
    10  H    0.000001   0.000017   0.000001   0.000000   0.000000   0.000000
    11  C   -0.000001   0.000000  -0.000001   0.000000   0.000000   0.000000
    12  H   -0.000002  -0.000000  -0.000002  -0.000000   0.000000  -0.000000
    13  H    0.000000  -0.000000   0.000000  -0.000000  -0.000000  -0.000000
    14  H    0.000000   0.000000   0.000000   0.000000  -0.000000  -0.000000
    15  C    0.000000  -0.000319  -0.000001  -0.001985   0.000003  -0.000013
    16  C   -0.000000   0.000021   0.000000   0.005844  -0.000107   0.000040
    17  C   -0.000009  -0.000103  -0.000003   0.006485   0.000875   0.000200
    18  C   -0.000000  -0.000003  -0.000000  -0.030866   0.004791   0.000825
    19  H    0.000000   0.000004   0.000000  -0.000062   0.000000  -0.000000
    20  C   -0.000000  -0.000048  -0.000000  -0.030242   0.005852   0.003878
    21  H   -0.000007   0.002708  -0.000010  -0.000030  -0.000027  -0.000002
    22  C    0.000000   0.000003   0.000000   0.308383  -0.067353  -0.083979
    23  H   -0.000000  -0.000000  -0.000000  -0.005670   0.000383   0.000581
    24  H    0.000000  -0.000004  -0.000000  -0.003516   0.007765   0.000866
    25  N   -0.002623   0.003924  -0.002601  -0.000000   0.000000  -0.000000
    26  C   -0.000659   0.000482  -0.000671   0.000000   0.000000  -0.000000
    27  H    0.000084  -0.000016  -0.000029  -0.000000  -0.000000   0.000000
    28  H   -0.000035  -0.000011   0.000081   0.000000   0.000000  -0.000000
    29  H   -0.000976   0.000218  -0.000958  -0.000000   0.000000   0.000000
    30  C    0.409506   0.409509   0.409416  -0.000000  -0.000000  -0.000000
    31  H    0.529202  -0.018741  -0.029182  -0.000000  -0.000000   0.000000
    32  H   -0.018741   0.500165  -0.018492   0.000000   0.000000   0.000000
    33  H   -0.029182  -0.018492   0.529120   0.000000  -0.000000  -0.000000
    34  C   -0.000000   0.000000   0.000000   4.047333   0.330616   0.346325
    35  F   -0.000000   0.000000  -0.000000   0.330616   9.012368  -0.045902
    36  F    0.000000   0.000000  -0.000000   0.346325  -0.045902   9.032821
    37  F   -0.000000   0.000000   0.000000   0.330748  -0.041180  -0.045047
              37
     1  N   -0.000000
     2  N    0.000000
     3  C   -0.000000
     4  C    0.000000
     5  C    0.000000
     6  C    0.000000
     7  C   -0.000000
     8  C   -0.000000
     9  C   -0.000000
    10  H    0.000000
    11  C    0.000000
    12  H   -0.000000
    13  H   -0.000000
    14  H    0.000000
    15  C   -0.000001
    16  C    0.000910
    17  C   -0.000121
    18  C    0.001928
    19  H   -0.000021
    20  C    0.005808
    21  H   -0.000000
    22  C   -0.058072
    23  H    0.009455
    24  H    0.000363
    25  N    0.000000
    26  C    0.000000
    27  H   -0.000000
    28  H    0.000000
    29  H    0.000000
    30  C   -0.000000
    31  H   -0.000000
    32  H    0.000000
    33  H    0.000000
    34  C    0.330748
    35  F   -0.041180
    36  F   -0.045047
    37  F    9.001900
 Mulliken charges:
               1
     1  N   -0.170206
     2  N   -0.246278
     3  C   -0.085949
     4  C   -0.058371
     5  C    0.231048
     6  C    0.197708
     7  C   -0.074548
     8  C   -0.080576
     9  C   -0.131043
    10  H    0.111366
    11  C   -0.129443
    12  H    0.130280
    13  H    0.116649
    14  H    0.119167
    15  C    0.027987
    16  C   -0.083569
    17  C   -0.053312
    18  C   -0.043497
    19  H    0.129441
    20  C   -0.046867
    21  H    0.138470
    22  C   -0.311197
    23  H    0.130442
    24  H    0.130808
    25  N   -0.469884
    26  C   -0.174947
    27  H    0.150667
    28  H    0.150720
    29  H    0.149425
    30  C   -0.278493
    31  H    0.152536
    32  H    0.147678
    33  H    0.152487
    34  C    0.696645
    35  F   -0.208083
    36  F   -0.210591
    37  F   -0.206670
 Sum of Mulliken charges =  -0.00000
 Mulliken charges with hydrogens summed into heavy atoms:
               1
     1  N   -0.170206
     2  N   -0.246278
     3  C   -0.085949
     4  C   -0.058371
     5  C    0.231048
     6  C    0.197708
     7  C    0.036818
     8  C    0.049703
     9  C   -0.014395
    11  C   -0.010277
    15  C    0.027987
    16  C    0.045873
    17  C    0.085158
    18  C    0.086946
    20  C    0.083941
    22  C   -0.311197
    25  N   -0.469884
    26  C    0.275864
    30  C    0.174207
    34  C    0.696645
    35  F   -0.208083
    36  F   -0.210591
    37  F   -0.206670
 Electronic spatial extent (au):  <R**2>=          11711.9271
 Charge=             -0.0000 electrons
 Dipole moment (field-independent basis, Debye):
    X=              8.6403    Y=              3.9370    Z=             -0.1207  Tot=              9.4957
 Quadrupole moment (field-independent basis, Debye-Ang):
   XX=           -118.2031   YY=           -111.5419   ZZ=           -137.3788
   XY=             17.9563   XZ=              0.6955   YZ=              0.5080
 Traceless Quadrupole moment (field-independent basis, Debye-Ang):
   XX=              4.1715   YY=             10.8327   ZZ=            -15.0042
   XY=             17.9563   XZ=              0.6955   YZ=              0.5080
 Octapole moment (field-independent basis, Debye-Ang**2):
  XXX=            293.0232  YYY=             24.8634  ZZZ=             -1.0141  XYY=              6.6940
  XXY=             69.4777  XXZ=             -4.0633  XZZ=            -38.3806  YZZ=             12.0028
  YYZ=              1.1852  XYZ=             -2.7184
 Hexadecapole moment (field-independent basis, Debye-Ang**3):
 XXXX=         -12186.0662 YYYY=          -1773.9094 ZZZZ=           -222.8470 XXXY=            368.2007
 XXXZ=             23.5806 YYYX=            100.6434 YYYZ=              2.0011 ZZZX=              2.4105
 ZZZY=             -0.2233 XXYY=          -2121.7949 XXZZ=          -2236.5233 YYZZ=           -386.5418
 XXYZ=              1.7326 YYXZ=             -6.5733 ZZXY=             48.0257
 N-N= 1.780689307076D+03 E-N=-6.184490883962D+03  KE= 1.116670186328D+03
 Leave Link  601 at Thu Feb  6 14:07:05 2025, MaxMem= 25501368320 cpu:               7.0 elap:               0.3
 (Enter /share/Apps/gaussian/g16/l9999.exe)
 Electronic transition elements 
                 1             2             3             4             5 
      1  -0.111969D+04 -0.111967D+04 -0.111963D+04 -0.111962D+04 -0.111961D+04
      2   0.145426D+00 -0.344566D+01  0.259709D+00  0.621383D-01 -0.651144D+00
      3   0.104644D-01 -0.280803D+00 -0.335547D+00 -0.269117D-01  0.101874D+01
      4  -0.143272D-01  0.811760D-02 -0.583136D-02 -0.160705D-01  0.636840D-02
      5  -0.152963D-01  0.434661D+00 -0.435426D-01 -0.114157D-01  0.111709D+00
      6  -0.930622D-03  0.283417D-01  0.585558D-01  0.487669D-02 -0.185501D+00
      7  -0.783012D-03 -0.572208D-03  0.102066D-02  0.272651D-02 -0.582228D-03
      8  -0.862445D+00 -0.199108D-01 -0.331072D-02  0.852973D-02  0.515964D-02
      9  -0.434076D+00 -0.518722D-01  0.133381D-01  0.855647D-02 -0.346248D-01
     10  -0.179142D-01  0.205723D+00 -0.892669D+00 -0.291833D+00  0.125865D+01
     11   0.118713D-01 -0.929043D+00  0.506252D+00 -0.238045D+00  0.618521D+00
     12   0.167553D-01 -0.558042D+00 -0.637712D-01 -0.390854D-01 -0.106455D+00
     13  -0.276876D-02 -0.116341D-01 -0.700023D-02  0.204912D-02  0.180099D-01
     14  -0.209343D-02 -0.366249D-01 -0.235158D+00 -0.435478D+00  0.111115D+01
     15   0.428339D-02  0.488909D-02 -0.541274D-02  0.110380D-01  0.205931D-01
     16  -0.679599D-01 -0.242080D-01 -0.991437D-03  0.171288D-02 -0.691309D-02
                 6             7             8             9            10 
      1  -0.111961D+04 -0.111960D+04 -0.111959D+04 -0.111958D+04 -0.111958D+04
      2  -0.713644D+00 -0.879102D-01 -0.550683D+00 -0.112044D+00 -0.132976D+00
      3  -0.678581D+00  0.269876D+00 -0.936182D+00 -0.647367D-02  0.264600D+00
      4  -0.130043D-01  0.320851D-01  0.681005D-01 -0.248529D-01  0.522606D-02
      5   0.137282D+00  0.140055D-01  0.110723D+00  0.235147D-01  0.300260D-01
      6   0.125917D+00 -0.485491D-01  0.199129D+00  0.100737D-02 -0.580743D-01
      7   0.280259D-02 -0.744641D-02 -0.149040D-01  0.222278D-02 -0.353097D-02
      8  -0.640747D-02  0.824814D-02  0.924644D-02  0.682014D-01  0.962837D-01
      9  -0.676123D-02  0.341035D-01  0.890991D-01  0.500186D-01  0.119150D+00
     10  -0.135946D+01  0.116057D+01  0.140332D+01  0.227470D+00  0.617564D+00
     11  -0.531183D+00 -0.205910D+01  0.887418D+00 -0.173504D+00 -0.123513D+01
     12   0.409863D-01 -0.133978D+00  0.627428D-01 -0.479442D-01 -0.178484D+00
     13  -0.635346D-02 -0.110842D-01  0.276106D-02 -0.779988D-03 -0.196721D-01
     14  -0.903498D+00  0.869969D+00  0.821747D+00  0.141251D+00  0.568973D+00
     15  -0.858008D-03 -0.742070D-02 -0.715755D-01  0.147284D-01  0.341413D-01
     16  -0.149404D-02 -0.279078D-02 -0.162311D-01  0.118031D-01 -0.138511D-01
                11            12            13            14            15 
      1  -0.111958D+04 -0.111957D+04 -0.111957D+04 -0.111957D+04 -0.111956D+04
      2  -0.402369D+00  0.679181D+00 -0.421035D+00  0.125762D+00 -0.294967D+00
      3   0.499449D+00 -0.100792D+01  0.968142D+00 -0.498015D+00 -0.772414D+00
      4   0.226107D-01 -0.172154D-01  0.322330D-01  0.289319D-01 -0.899917D-02
      5   0.894494D-01 -0.153443D+00  0.103861D+00 -0.333482D-01  0.707173D-01
      6  -0.109489D+00  0.220681D+00 -0.216738D+00  0.111859D+00  0.181879D+00
      7  -0.395140D-02  0.328790D-02 -0.108671D-01 -0.126525D-01  0.216325D-02
      8  -0.445323D-01  0.924220D-02 -0.314832D+00 -0.576756D+00  0.118139D-01
      9  -0.621219D-01  0.137328D-01 -0.177457D+00 -0.290156D+00  0.151010D-01
     10   0.121071D+01 -0.861562D+00  0.362286D+00 -0.163986D+00 -0.102605D+01
     11  -0.236011D+01  0.230697D+01 -0.160999D+01  0.868437D+00 -0.695589D+00
     12  -0.350400D+00  0.497117D-01  0.197843D+00 -0.133232D+00  0.507717D+00
     13  -0.261610D-01 -0.183891D-01  0.423396D-01 -0.182044D-01 -0.212653D-02
     14   0.115711D+01 -0.224937D+01  0.179962D+01 -0.943334D+00 -0.153940D+01
     15  -0.780188D-02 -0.347208D-01  0.616787D-01  0.213263D-01 -0.177961D-01
     16  -0.707426D-02  0.685229D-02 -0.450588D-01 -0.909275D-01  0.102491D-01
                16            17            18            19            20 
      1  -0.111955D+04 -0.111954D+04 -0.111954D+04 -0.111954D+04 -0.111954D+04
      2  -0.138951D+01 -0.100698D+01 -0.297558D+00 -0.138877D+00  0.552743D+00
      3  -0.201526D+00  0.259402D+00 -0.982153D-01 -0.549496D-01  0.150401D+01
      4   0.301261D-02 -0.550580D-01  0.385416D-01  0.156063D+00  0.214806D-01
      5   0.344250D+00  0.254542D+00  0.751247D-01  0.354285D-01 -0.142260D+00
      6   0.546096D-01 -0.681125D-01  0.247267D-01  0.138457D-01 -0.386320D+00
      7  -0.353096D-03  0.152369D-01 -0.184912D-01 -0.381854D-01 -0.590585D-02
      8  -0.278951D-02  0.266498D-01 -0.144782D+00 -0.101031D+00 -0.800745D-02
      9  -0.426207D-02 -0.348633D-01  0.113345D+00 -0.481344D+00 -0.561002D-01
     10  -0.685964D+00 -0.161849D+01 -0.544491D+00 -0.300569D+00  0.329430D+01
     11   0.282020D+01  0.141217D+01  0.152228D+00 -0.213747D-01  0.383746D+01
     12   0.305530D+00  0.305980D+00  0.154451D+00  0.104033D+00 -0.159786D+01
     13   0.159158D-01  0.105378D-01  0.688536D-02 -0.409297D-02  0.239303D-01
     14  -0.130582D-01 -0.911318D+00 -0.318276D+00 -0.177037D+00  0.250691D+01
     15  -0.125733D-01  0.276027D-01 -0.978428D-01  0.399865D+00  0.338514D-01
     16   0.239788D-02  0.120900D-01 -0.372525D-01 -0.454801D-01 -0.255931D-01
 Unable to Open any file for archive entry.
 1\1\GINC-SOL-E613\SP\RCAM-B3LYP TD-FC\6-311G(d,p)\C17H14F3N3\CRF524\06
 -Feb-2025\0\\#p td(nstates=20, singlets) cam-b3lyp/6-311g(d,p) scrf=(s
 olvent=acetonitrile)\\cf3-pai-me_anti-trans_tddft\\0,1\N,0,-0.77553,-0
 .63117,-0.02253\N,0,-0.110023,0.43516,-0.02052\C,0,-2.135845,-0.497521
 ,-0.013172\C,0,-2.990989,0.667861,0.006806\C,0,-2.959235,-1.620341,-0.
 021628\C,0,-4.307176,0.1706,0.009771\C,0,-2.788442,2.049352,0.022835\C
 ,0,-5.420235,1.001432,0.027967\C,0,-3.893472,2.884275,0.041128\H,0,-1.
 784525,2.447159,0.020689\C,0,-5.194169,2.367982,0.043618\H,0,-6.426274
 ,0.601524,0.029896\H,0,-3.750173,3.958096,0.053727\H,0,-6.038524,3.046
 307,0.058061\C,0,1.294216,0.244943,-0.02103\C,0,2.06449,1.401361,-0.11
 0935\C,0,1.92752,-0.99763,0.067166\C,0,3.447432,1.328062,-0.117701\H,0
 ,1.560511,2.356935,-0.17915\C,0,3.306243,-1.072133,0.061567\H,0,1.3263
 7,-1.892601,0.138256\C,0,4.068554,0.089981,-0.032088\H,0,4.040252,2.22
 9762,-0.194523\H,0,3.796115,-2.035695,0.12385\N,0,-4.254795,-1.218764,
 -0.007749\C,0,-5.43194,-2.06723,-0.010084\H,0,-6.029852,-1.885838,0.88
 4123\H,0,-6.040501,-1.866626,-0.892943\H,0,-5.13092,-3.110395,-0.02304
 3\C,0,-2.552424,-3.048462,-0.043234\H,0,-2.938689,-3.556569,-0.929792\
 H,0,-1.46718,-3.109758,-0.052787\H,0,-2.92488,-3.579905,0.835523\C,0,5
 .559223,-0.004237,0.012503\F,0,6.019995,-1.085778,-0.643291\F,0,6.0240
 11,-0.1052,1.276209\F,0,6.159127,1.070005,-0.528166\\Version=ES64L-G16
 RevC.01\State=1-A\HF=-1119.7975852\RMSD=3.157e-09\PG=C01 [X(C17H14F3N3
 )]\\@
 The archive entry for this job was punched.


 THE ... SCIENTISTS WERE WRONG ... THE MOST PERSISTENT PRINCIPLES 
 OF THE UNIVERSE WERE ACCIDENT AND ERROR.

                          -- FRANK HERBERT IN DUNE
 Job cpu time:       0 days  2 hours 10 minutes 50.6 seconds.
 Elapsed time:       0 days  0 hours  3 minutes 42.7 seconds.
 File lengths (MBytes):  RWF=   3056 Int=      0 D2E=      0 Chk=    300 Scr=      8
 Normal termination of Gaussian 16 at Thu Feb  6 14:07:06 2025.
