 Entering Gaussian System, Link 0=g16
 Initial command:
 /share/Apps/gaussian/g16/l1.exe "/share/ceph/scratch/crf524/12270715/Gau-1051136.inp" -scrdir="/share/ceph/scratch/crf524/12270715/"
 Entering Link 1 = /share/Apps/gaussian/g16/l1.exe PID=   1051137.
  
 Copyright (c) 1988-2019, Gaussian, Inc.  All Rights Reserved.
  
 This is part of the Gaussian(R) 16 program.  It is based on
 the Gaussian(R) 09 system (copyright 2009, Gaussian, Inc.),
 the Gaussian(R) 03 system (copyright 2003, Gaussian, Inc.),
 the Gaussian(R) 98 system (copyright 1998, Gaussian, Inc.),
 the Gaussian(R) 94 system (copyright 1995, Gaussian, Inc.),
 the Gaussian 92(TM) system (copyright 1992, Gaussian, Inc.),
 the Gaussian 90(TM) system (copyright 1990, Gaussian, Inc.),
 the Gaussian 88(TM) system (copyright 1988, Gaussian, Inc.),
 the Gaussian 86(TM) system (copyright 1986, Carnegie Mellon
 University), and the Gaussian 82(TM) system (copyright 1983,
 Carnegie Mellon University). Gaussian is a federally registered
 trademark of Gaussian, Inc.
  
 This software contains proprietary and confidential information,
 including trade secrets, belonging to Gaussian, Inc.
  
 This software is provided under written license and may be
 used, copied, transmitted, or stored only in accord with that
 written license.
  
 The following legend is applicable only to US Government
 contracts under FAR:
  
                    RESTRICTED RIGHTS LEGEND
  
 Use, reproduction and disclosure by the US Government is
 subject to restrictions as set forth in subparagraphs (a)
 and (c) of the Commercial Computer Software - Restricted
 Rights clause in FAR 52.227-19.
  
 Gaussian, Inc.
 340 Quinnipiac St., Bldg. 40, Wallingford CT 06492
  
  
 ---------------------------------------------------------------
 Warning -- This program may not be used in any manner that
 competes with the business of Gaussian, Inc. or will provide
 assistance to any competitor of Gaussian, Inc.  The licensee
 of this program is prohibited from giving any competitor of
 Gaussian, Inc. access to this program.  By using this program,
 the user acknowledges that Gaussian, Inc. is engaged in the
 business of creating and licensing software in the field of
 computational chemistry and represents and warrants to the
 licensee that it is not a competitor of Gaussian, Inc. and that
 it will not use this program in any manner prohibited above.
 ---------------------------------------------------------------
  

 Cite this work as:
 Gaussian 16, Revision C.01,
 M. J. Frisch, G. W. Trucks, H. B. Schlegel, G. E. Scuseria, 
 M. A. Robb, J. R. Cheeseman, G. Scalmani, V. Barone, 
 G. A. Petersson, H. Nakatsuji, X. Li, M. Caricato, A. V. Marenich, 
 J. Bloino, B. G. Janesko, R. Gomperts, B. Mennucci, H. P. Hratchian, 
 J. V. Ortiz, A. F. Izmaylov, J. L. Sonnenberg, D. Williams-Young, 
 F. Ding, F. Lipparini, F. Egidi, J. Goings, B. Peng, A. Petrone, 
 T. Henderson, D. Ranasinghe, V. G. Zakrzewski, J. Gao, N. Rega, 
 G. Zheng, W. Liang, M. Hada, M. Ehara, K. Toyota, R. Fukuda, 
 J. Hasegawa, M. Ishida, T. Nakajima, Y. Honda, O. Kitao, H. Nakai, 
 T. Vreven, K. Throssell, J. A. Montgomery, Jr., J. E. Peralta, 
 F. Ogliaro, M. J. Bearpark, J. J. Heyd, E. N. Brothers, K. N. Kudin, 
 V. N. Staroverov, T. A. Keith, R. Kobayashi, J. Normand, 
 K. Raghavachari, A. P. Rendell, J. C. Burant, S. S. Iyengar, 
 J. Tomasi, M. Cossi, J. M. Millam, M. Klene, C. Adamo, R. Cammi, 
 J. W. Ochterski, R. L. Martin, K. Morokuma, O. Farkas, 
 J. B. Foresman, and D. J. Fox, Gaussian, Inc., Wallingford CT, 2019.
 
 ******************************************
 Gaussian 16:  ES64L-G16RevC.01  3-Jul-2019
                 6-Feb-2025 
 ******************************************
 %nprocshared=36
 Will use up to   36 processors via shared memory.
 %mem=190GB
 %chk=anti-cis.chk
 ----------------------------------------------------------------------
 #p td(nstates=20, singlets) cam-b3lyp/6-311g(d,p) scrf=(solvent=aceton
 itrile)
 ----------------------------------------------------------------------
 1/38=1,172=1/1;
 2/12=2,17=6,18=5,40=1/2;
 3/5=4,6=6,7=101,11=9,25=1,30=1,70=2201,72=2,74=-40/1,2,3,8;
 4//1;
 5/5=2,38=5,53=2/2;
 8/6=1,10=2,108=20/1;
 9/41=20,42=1,48=1,70=2/14;
 6/7=2,8=2,9=2,10=2/1;
 99/5=1,9=1/99;
 Leave Link    1 at Thu Feb  6 16:30:24 2025, MaxMem= 25501368320 cpu:               3.9 elap:               0.1
 (Enter /share/Apps/gaussian/g16/l101.exe)
 -------------------------
 ome-pai-me_anti-cis_tddft
 -------------------------
 Symbolic Z-matrix:
 Charge =  0 Multiplicity = 1
 N                    -0.94993  -2.25622  -0.56849 
 N                     0.26294  -2.49574  -0.73912 
 C                    -1.53066  -1.02541  -0.24855 
 C                    -1.22933   0.36547  -0.53373 
 C                    -2.78289  -1.05414   0.35091 
 C                    -2.32883   1.099    -0.03953 
 C                    -0.22049   1.06515  -1.20598 
 C                    -2.42799   2.48165  -0.15605 
 C                    -0.31608   2.43945  -1.3319 
 H                     0.62916   0.54803  -1.62718 
 C                    -1.40388   3.14563  -0.80551 
 H                    -3.28282   3.0189    0.23485 
 H                     0.46809   2.97985  -1.84843 
 H                    -1.45001   4.22208  -0.91686 
 C                     1.30779  -1.58255  -0.41839 
 C                     2.38952  -1.51278  -1.29796 
 C                     1.38551  -0.91644   0.7982 
 C                     3.48988  -0.73715  -0.99861 
 H                     2.34679  -2.07237  -2.22459 
 C                     2.50499  -0.16144   1.12399 
 H                     0.57327  -0.99256   1.50944 
 C                     3.55657  -0.05379   0.21801 
 H                     4.32488  -0.65925  -1.68346 
 H                     2.54158   0.33805   2.08155 
 N                    -3.23953   0.21727   0.51441 
 C                    -4.49138   0.62186   1.12514 
 H                    -4.30782   1.38806   1.87891 
 H                    -5.17877   1.01788   0.37518 
 H                    -4.95419  -0.23312   1.60934 
 C                    -3.55251  -2.24832   0.78599 
 H                    -4.57414  -2.22295   0.40163 
 H                    -3.05418  -3.13998   0.41285 
 H                    -3.6066   -2.31662   1.87563 
 O                     4.68324   0.66902   0.43149 
 C                     4.80977   1.37674   1.65572 
 H                     4.79901   0.69582   2.511 
 H                     5.77079   1.88291   1.61073 
 H                     4.01466   2.11837   1.76942 
 
 ITRead=  0  0  0  0  0  0  0  0  0  0  0  0  0  0  0  0  0  0  0  0
 ITRead=  0  0  0  0  0  0  0  0  0  0  0  0  0  0  0  0  0  0
 MicOpt= -1 -1 -1 -1 -1 -1 -1 -1 -1 -1 -1 -1 -1 -1 -1 -1 -1 -1 -1 -1
 MicOpt= -1 -1 -1 -1 -1 -1 -1 -1 -1 -1 -1 -1 -1 -1 -1 -1 -1 -1
 NAtoms=     38 NQM=       38 NQMF=       0 NMMI=      0 NMMIF=      0
                NMic=       0 NMicF=      0.
                    Isotopes and Nuclear Properties:
 (Nuclear quadrupole moments (NQMom) in fm**2, nuclear magnetic moments (NMagM)
  in nuclear magnetons)

  Atom         1           2           3           4           5           6           7           8           9          10
 IAtWgt=          14          14          12          12          12          12          12          12          12           1
 AtmWgt=  14.0030740  14.0030740  12.0000000  12.0000000  12.0000000  12.0000000  12.0000000  12.0000000  12.0000000   1.0078250
 NucSpn=           2           2           0           0           0           0           0           0           0           1
 AtZEff=  -0.0000000  -0.0000000  -0.0000000  -0.0000000  -0.0000000  -0.0000000  -0.0000000  -0.0000000  -0.0000000  -0.0000000
 NQMom=    2.0440000   2.0440000   0.0000000   0.0000000   0.0000000   0.0000000   0.0000000   0.0000000   0.0000000   0.0000000
 NMagM=    0.4037610   0.4037610   0.0000000   0.0000000   0.0000000   0.0000000   0.0000000   0.0000000   0.0000000   2.7928460
 AtZNuc=   7.0000000   7.0000000   6.0000000   6.0000000   6.0000000   6.0000000   6.0000000   6.0000000   6.0000000   1.0000000

  Atom        11          12          13          14          15          16          17          18          19          20
 IAtWgt=          12           1           1           1          12          12          12          12           1          12
 AtmWgt=  12.0000000   1.0078250   1.0078250   1.0078250  12.0000000  12.0000000  12.0000000  12.0000000   1.0078250  12.0000000
 NucSpn=           0           1           1           1           0           0           0           0           1           0
 AtZEff=  -0.0000000  -0.0000000  -0.0000000  -0.0000000  -0.0000000  -0.0000000  -0.0000000  -0.0000000  -0.0000000  -0.0000000
 NQMom=    0.0000000   0.0000000   0.0000000   0.0000000   0.0000000   0.0000000   0.0000000   0.0000000   0.0000000   0.0000000
 NMagM=    0.0000000   2.7928460   2.7928460   2.7928460   0.0000000   0.0000000   0.0000000   0.0000000   2.7928460   0.0000000
 AtZNuc=   6.0000000   1.0000000   1.0000000   1.0000000   6.0000000   6.0000000   6.0000000   6.0000000   1.0000000   6.0000000

  Atom        21          22          23          24          25          26          27          28          29          30
 IAtWgt=           1          12           1           1          14          12           1           1           1          12
 AtmWgt=   1.0078250  12.0000000   1.0078250   1.0078250  14.0030740  12.0000000   1.0078250   1.0078250   1.0078250  12.0000000
 NucSpn=           1           0           1           1           2           0           1           1           1           0
 AtZEff=  -0.0000000  -0.0000000  -0.0000000  -0.0000000  -0.0000000  -0.0000000  -0.0000000  -0.0000000  -0.0000000  -0.0000000
 NQMom=    0.0000000   0.0000000   0.0000000   0.0000000   2.0440000   0.0000000   0.0000000   0.0000000   0.0000000   0.0000000
 NMagM=    2.7928460   0.0000000   2.7928460   2.7928460   0.4037610   0.0000000   2.7928460   2.7928460   2.7928460   0.0000000
 AtZNuc=   1.0000000   6.0000000   1.0000000   1.0000000   7.0000000   6.0000000   1.0000000   1.0000000   1.0000000   6.0000000

  Atom        31          32          33          34          35          36          37          38
 IAtWgt=           1           1           1          16          12           1           1           1
 AtmWgt=   1.0078250   1.0078250   1.0078250  15.9949146  12.0000000   1.0078250   1.0078250   1.0078250
 NucSpn=           1           1           1           0           0           1           1           1
 AtZEff=  -0.0000000  -0.0000000  -0.0000000  -0.0000000  -0.0000000  -0.0000000  -0.0000000  -0.0000000
 NQMom=    0.0000000   0.0000000   0.0000000   0.0000000   0.0000000   0.0000000   0.0000000   0.0000000
 NMagM=    2.7928460   2.7928460   2.7928460   0.0000000   0.0000000   2.7928460   2.7928460   2.7928460
 AtZNuc=   1.0000000   1.0000000   1.0000000   8.0000000   6.0000000   1.0000000   1.0000000   1.0000000
 Leave Link  101 at Thu Feb  6 16:30:24 2025, MaxMem= 25501368320 cpu:               3.7 elap:               0.1
 (Enter /share/Apps/gaussian/g16/l202.exe)
                          Input orientation:                          
 ---------------------------------------------------------------------
 Center     Atomic      Atomic             Coordinates (Angstroms)
 Number     Number       Type             X           Y           Z
 ---------------------------------------------------------------------
      1          7           0       -0.949930   -2.256219   -0.568491
      2          7           0        0.262942   -2.495743   -0.739118
      3          6           0       -1.530661   -1.025407   -0.248547
      4          6           0       -1.229333    0.365465   -0.533734
      5          6           0       -2.782892   -1.054138    0.350913
      6          6           0       -2.328826    1.099004   -0.039534
      7          6           0       -0.220494    1.065153   -1.205977
      8          6           0       -2.427991    2.481649   -0.156051
      9          6           0       -0.316076    2.439450   -1.331897
     10          1           0        0.629160    0.548032   -1.627178
     11          6           0       -1.403879    3.145635   -0.805508
     12          1           0       -3.282824    3.018897    0.234847
     13          1           0        0.468092    2.979845   -1.848434
     14          1           0       -1.450008    4.222077   -0.916863
     15          6           0        1.307794   -1.582548   -0.418394
     16          6           0        2.389521   -1.512784   -1.297959
     17          6           0        1.385505   -0.916435    0.798200
     18          6           0        3.489884   -0.737154   -0.998605
     19          1           0        2.346786   -2.072370   -2.224592
     20          6           0        2.504993   -0.161441    1.123985
     21          1           0        0.573268   -0.992559    1.509439
     22          6           0        3.556572   -0.053788    0.218007
     23          1           0        4.324876   -0.659247   -1.683461
     24          1           0        2.541584    0.338047    2.081546
     25          7           0       -3.239527    0.217270    0.514410
     26          6           0       -4.491376    0.621860    1.125140
     27          1           0       -4.307820    1.388057    1.878907
     28          1           0       -5.178765    1.017884    0.375176
     29          1           0       -4.954190   -0.233115    1.609344
     30          6           0       -3.552505   -2.248324    0.785993
     31          1           0       -4.574144   -2.222948    0.401627
     32          1           0       -3.054179   -3.139976    0.412851
     33          1           0       -3.606604   -2.316623    1.875633
     34          8           0        4.683239    0.669017    0.431488
     35          6           0        4.809769    1.376738    1.655717
     36          1           0        4.799005    0.695820    2.511004
     37          1           0        5.770786    1.882912    1.610730
     38          1           0        4.014658    2.118370    1.769424
 ---------------------------------------------------------------------
                    Distance matrix (angstroms):
                    1          2          3          4          5
     1  N    0.000000
     2  N    1.248016   0.000000
     3  C    1.398038   2.370561   0.000000
     4  C    2.636760   3.233509   1.451432   0.000000
     5  C    2.376984   3.541680   1.388618   2.282853   0.000000
     6  C    3.665879   4.486523   2.279008   1.411098   2.234870
     7  C    3.459765   3.623762   2.646441   1.399725   3.671673
     8  C    4.980177   5.688191   3.621215   2.461231   3.589534
     9  C    4.799361   5.004276   3.828067   2.402606   4.595888
    10  H    3.387944   3.191760   3.006852   2.164012   4.256982
    11  C    5.426073   5.882843   4.209973   2.798870   4.569144
    12  H    5.823624   6.628146   4.433976   3.442128   4.105243
    13  H    5.573635   5.590593   4.753598   3.382997   5.628414
    14  H    6.506901   6.935048   5.290486   3.881873   5.587690
    15  C    2.360864   1.424256   2.897599   3.200792   4.195803
    16  C    3.498107   2.408495   4.087374   4.148248   5.448210
    17  C    3.019457   2.473400   3.100255   3.202295   4.194587
    18  C    4.712166   3.684172   5.084442   4.868561   6.424126
    19  H    3.693888   2.593894   4.476101   4.646576   5.829547
    20  C    4.380532   3.734556   4.349343   4.119570   5.418143
    21  H    2.869627   2.722476   2.741917   3.044365   3.551026
    22  C    5.077188   4.210372   5.200159   4.862692   6.419281
    23  H    5.622905   4.556732   6.039898   5.763779   7.403714
    24  H    5.093484   4.602034   4.885849   4.589145   5.769169
    25  N    3.540209   4.604244   2.246458   2.271882   1.360781
    26  C    4.867604   5.983180   3.656000   3.668586   2.515415
    27  H    5.526837   6.544450   4.250115   4.042723   3.259523
    28  H    5.430774   6.572625   4.227615   4.104848   3.167660
    29  H    4.986984   6.152498   3.974926   4.338852   2.640504
    30  C    2.933954   4.116408   2.579467   3.737740   1.485826
    31  H    3.751955   4.977260   3.334609   4.331575   2.139456
    32  H    2.484335   3.570064   2.688858   4.063767   2.104318
    33  H    3.610444   4.673585   3.238660   4.318572   2.144094
    34  O    6.425695   5.561030   6.476579   5.998525   7.662824
    35  C    7.163771   6.434670   7.042555   6.502855   8.078377
    36  H    7.158776   6.428471   7.116348   6.761688   8.075488
    37  H    8.188372   7.418271   8.076284   7.476833   9.131200
    38  H    7.017835   6.454316   6.686262   5.989712   7.634374
                    6          7          8          9         10
     6  C    0.000000
     7  C    2.409730   0.000000
     8  C    1.391085   2.825217   0.000000
     9  C    2.741926   1.383360   2.417557   0.000000
    10  H    3.402038   1.080156   3.905030   2.134976   0.000000
    11  C    2.372961   2.426763   1.382562   1.399678   3.399401
    12  H    2.161339   3.907807   1.082671   3.404708   4.987578
    13  H    3.825236   2.133764   3.391114   1.083401   2.447164
    14  H    3.360895   3.400215   2.136440   2.153094   4.280899
    15  C    4.534232   3.156940   5.526537   4.432596   2.541864
    16  C    5.537858   3.669659   6.361436   4.789735   2.730241
    17  C    4.308137   3.243863   5.196183   4.323732   2.932436
    18  C    6.176462   4.130160   6.789097   4.968624   3.198523
    19  H    6.057511   4.180018   6.914944   5.314533   3.189616
    20  C    5.129162   3.789662   5.740971   4.555702   3.404556
    21  H    3.898218   3.498245   4.883803   4.543436   3.494984
    22  C    6.002763   4.188793   6.510250   4.859613   3.512355
    23  H    7.075711   4.884868   7.602593   5.591418   3.888317
    24  H    5.366463   4.354947   5.856496   4.922774   4.178049
    25  N    1.383360   3.576758   2.497102   4.110170   4.434246
    26  C    2.502150   4.885801   3.059056   5.174340   5.813828
    27  H    2.771351   5.130985   2.978381   5.229599   6.113268
    28  H    2.881097   5.204491   3.160944   5.346091   6.161345
    29  H    3.374296   5.658570   4.107097   6.107831   6.500697
    30  C    3.658345   5.103859   4.952234   6.077430   5.579366
    31  H    4.033787   5.687730   5.200982   6.547840   6.234481
    32  H    4.324320   5.322921   5.684930   6.455335   5.597330
    33  H    4.119113   5.691965   5.342311   6.613324   6.198196
    34  O    7.041009   5.185057   7.362094   5.589017   4.548439
    35  C    7.342380   5.795681   7.542447   6.027394   5.379744
    36  H    7.581146   6.256814   7.907708   6.631153   5.876564
    37  H    8.303108   6.670682   8.408326   6.783707   6.221115
    38  H    6.674670   5.281930   6.734029   5.336342   5.046233
                   11         12         13         14         15
    11  C    0.000000
    12  H    2.151473   0.000000
    13  H    2.149292   4.290799   0.000000
    14  H    1.083169   2.476549   2.467807   0.000000
    15  C    5.464315   6.532518   4.854435   6.445744   0.000000
    16  C    6.027708   7.420318   4.917177   6.912008   1.395935
    17  C    5.181984   6.131680   4.798679   6.114399   1.389189
    18  C    6.249980   7.842123   4.865133   7.000228   2.410986
    19  H    6.580947   7.978869   5.403320   7.466315   2.140510
    20  C    5.471652   6.663628   4.780368   6.246785   2.414904
    21  H    5.137386   5.708398   5.202535   6.096968   2.145730
    22  C    5.990823   7.497934   4.797063   6.681077   2.792690
    23  H    6.933005   8.665203   5.305185   7.600282   3.399362
    24  H    5.637757   6.672405   5.169450   6.325263   3.385354
    25  N    3.699609   2.815874   5.192426   4.614044   4.978714
    26  C    4.430517   2.828251   6.244883   5.136269   6.393144
    27  H    4.327590   2.532428   6.263880   4.900519   6.755532
    28  H    4.491225   2.760134   6.378144   5.083291   7.033310
    29  H    5.463714   3.906186   7.188914   6.205622   6.719013
    30  C    6.020321   5.302840   7.102053   7.013295   5.051367
    31  H    6.350546   5.401135   7.586565   7.282650   5.973252
    32  H    6.611868   6.165686   7.414311   7.651231   4.705673
    33  H    6.471227   5.591492   7.650124   7.429908   5.472909
    34  O    6.687062   8.307753   5.320285   7.215193   4.145537
    35  C    6.913468   8.378879   5.805100   7.341589   5.032210
    36  H    7.448263   8.711690   6.555782   7.952039   5.095183
    37  H    7.675187   9.227750   6.425546   8.000018   6.003753
    38  H    6.086550   7.511266   5.138985   6.442383   5.080399
                   16         17         18         19         20
    16  C    0.000000
    17  C    2.399492   0.000000
    18  C    1.379135   2.772916   0.000000
    19  H    1.083334   3.376021   2.143016   0.000000
    20  C    2.775838   1.389030   2.409739   3.858711   0.000000
    21  H    3.383917   1.082305   3.855148   4.272510   2.137965
    22  C    2.405999   2.407138   1.396990   3.391835   1.392194
    23  H    2.150055   3.855475   1.082732   2.490498   3.382534
    24  H    3.856132   2.134765   3.397449   4.938712   1.080625
    25  N    6.161489   4.770403   6.963125   6.629591   5.789172
    26  C    7.600977   6.083664   8.370049   8.077131   7.040081
    27  H    7.960008   6.236390   8.579090   8.549681   7.027466
    28  H    8.153687   6.856397   8.950581   8.540631   7.809716
    29  H    8.001253   6.427800   8.851996   8.449034   7.475301
    30  C    6.339680   5.114491   7.420490   6.625422   6.415809
    31  H    7.203163   6.114055   8.318460   7.403984   7.408495
    32  H    5.933675   4.980303   7.112701   6.104614   6.346793
    33  H    6.831644   5.295521   7.817679   7.232866   6.523910
    34  O    3.607268   3.677388   2.333791   4.475374   2.431865
    35  C    4.788647   4.209461   3.640887   5.746253   2.821476
    36  H    5.019138   4.145485   4.010557   6.008504   2.814464
    37  H    5.605727   5.265666   4.344639   6.486735   3.883517
    38  H    5.023464   4.131073   4.011407   6.024638   2.809487
                   21         22         23         24         25
    21  H    0.000000
    22  C    3.383665   0.000000
    23  H    4.937638   2.138329   0.000000
    24  H    2.443785   2.157895   4.283690   0.000000
    25  N    4.122035   6.807958   7.925851   5.990972   0.000000
    26  C    5.329602   8.127045   9.341080   7.103365   1.450452
    27  H    5.443240   8.166160   9.560615   6.932382   2.091374
    28  H    6.197928   8.802232   9.867621   7.935847   2.102620
    29  H    5.580280   8.625604   9.855213   7.532319   2.083698
    30  C    4.372908   7.461741   8.406932   6.745791   2.500173
    31  H    5.407121   8.417097   9.272826   7.746897   2.783628
    32  H    4.355718   7.298257   8.062195   6.796598   3.363892
    33  H    4.399838   7.692804   8.849995   6.699992   2.899705
    34  O    4.562310   1.355507   2.523038   2.723769   7.936068
    35  C    4.856223   2.384097   3.940871   2.530785   8.212071
    36  H    4.659464   2.713556   4.433344   2.325594   8.296589
    37  H    5.940773   3.254724   4.405102   3.610543   9.228327
    38  H    4.646357   2.708322   4.442275   2.331720   7.603449
                   26         27         28         29         30
    26  C    0.000000
    27  H    1.090374   0.000000
    28  H    1.091689   1.776733   0.000000
    29  H    1.086109   1.765972   1.771610   0.000000
    30  C    3.038825   3.871463   3.671731   2.589149   0.000000
    31  H    2.936538   3.910581   3.296856   2.358485   1.091846
    32  H    4.089536   4.921790   4.669377   3.673075   1.087477
    33  H    3.159231   3.770460   3.980201   2.495577   1.093118
    34  O    9.200920   9.135162   9.868333   9.750960   8.744371
    35  C    9.346799   9.120327  10.076675   9.895892   9.155606
    36  H    9.393469   9.154944  10.208887   9.838736   9.021716
    37  H   10.350750  10.094310  11.052942  10.931728  10.230887
    38  H    8.660673   8.355177   9.363441   9.273367   8.791877
                   31         32         33         34         35
    31  H    0.000000
    32  H    1.775207   0.000000
    33  H    1.765673   1.767149   0.000000
    34  O    9.698634   8.624176   8.928667   0.000000
    35  C   10.128588   9.153529   9.193727   1.419724   0.000000
    36  H   10.041145   8.988219   8.951691   2.082908   1.093289
    37  H   11.195427  10.224692  10.278215   2.011694   1.087101
    38  H    9.720362   8.913975   8.818394   2.082714   1.093229
                   36         37         38
    36  H    0.000000
    37  H    1.778775   0.000000
    38  H    1.785718   1.778935   0.000000
 Stoichiometry    C17H17N3O
 Framework group  C1[X(C17H17N3O)]
 Deg. of freedom   108
 Full point group                 C1      NOp   1
 Largest Abelian subgroup         C1      NOp   1
 Largest concise Abelian subgroup C1      NOp   1
                         Standard orientation:                         
 ---------------------------------------------------------------------
 Center     Atomic      Atomic             Coordinates (Angstroms)
 Number     Number       Type             X           Y           Z
 ---------------------------------------------------------------------
      1          7           0       -0.949930   -2.256219   -0.568491
      2          7           0        0.262942   -2.495743   -0.739118
      3          6           0       -1.530661   -1.025407   -0.248547
      4          6           0       -1.229333    0.365465   -0.533734
      5          6           0       -2.782892   -1.054138    0.350913
      6          6           0       -2.328826    1.099004   -0.039534
      7          6           0       -0.220494    1.065153   -1.205977
      8          6           0       -2.427991    2.481649   -0.156051
      9          6           0       -0.316076    2.439450   -1.331897
     10          1           0        0.629160    0.548032   -1.627178
     11          6           0       -1.403879    3.145635   -0.805508
     12          1           0       -3.282824    3.018897    0.234847
     13          1           0        0.468092    2.979845   -1.848434
     14          1           0       -1.450008    4.222077   -0.916863
     15          6           0        1.307794   -1.582548   -0.418394
     16          6           0        2.389521   -1.512784   -1.297959
     17          6           0        1.385505   -0.916435    0.798200
     18          6           0        3.489884   -0.737154   -0.998605
     19          1           0        2.346786   -2.072370   -2.224592
     20          6           0        2.504993   -0.161441    1.123985
     21          1           0        0.573268   -0.992559    1.509439
     22          6           0        3.556572   -0.053788    0.218007
     23          1           0        4.324876   -0.659247   -1.683461
     24          1           0        2.541584    0.338047    2.081546
     25          7           0       -3.239527    0.217270    0.514410
     26          6           0       -4.491376    0.621860    1.125140
     27          1           0       -4.307820    1.388057    1.878907
     28          1           0       -5.178765    1.017884    0.375176
     29          1           0       -4.954190   -0.233115    1.609344
     30          6           0       -3.552505   -2.248324    0.785993
     31          1           0       -4.574144   -2.222948    0.401627
     32          1           0       -3.054179   -3.139976    0.412851
     33          1           0       -3.606604   -2.316623    1.875633
     34          8           0        4.683239    0.669017    0.431488
     35          6           0        4.809769    1.376738    1.655717
     36          1           0        4.799005    0.695820    2.511004
     37          1           0        5.770786    1.882912    1.610730
     38          1           0        4.014658    2.118370    1.769424
 ---------------------------------------------------------------------
 Rotational constants (GHZ):           0.5317183           0.2081090           0.1729129
 Leave Link  202 at Thu Feb  6 16:30:24 2025, MaxMem= 25501368320 cpu:               1.7 elap:               0.1
 (Enter /share/Apps/gaussian/g16/l301.exe)
 Standard basis: 6-311G(d,p) (5D, 7F)
 Ernie: Thresh=  0.10000D-02 Tol=  0.10000D-05 Strict=F.
 There are   501 symmetry adapted cartesian basis functions of A   symmetry.
 There are   480 symmetry adapted basis functions of A   symmetry.
   480 basis functions,   808 primitive gaussians,   501 cartesian basis functions
    74 alpha electrons       74 beta electrons
       nuclear repulsion energy      1606.3378609996 Hartrees.
 IExCor=20419 DFT=T Ex+Corr=CAM-B3LYP ExCW=0 ScaHFX=  1.000000
 ScaDFX=  1.000000  1.000000  1.000000  0.810000 ScalE2=  1.000000  1.000000
 IRadAn=      5 IRanWt=     -1 IRanGd=            0 ICorTp=0 IEmpDi=  4
 HFx  wShort=  0.000000 wLong=  0.330000 cFull=  0.190000 cShort=  0.000000 cLong=  0.460000
 DFx  wShort=  0.000000 wLong=  0.330000 cFull=  0.190000 cShort=  0.000000 cLong=  0.460000
 NAtoms=   38 NActive=   38 NUniq=   38 SFac= 1.00D+00 NAtFMM=   60 NAOKFM=F Big=F
 Integral buffers will be    131072 words long.
 Raffenetti 1 integral format.
 Two-electron integral symmetry is turned on.
 ------------------------------------------------------------------------------
 Polarizable Continuum Model (PCM)
 =================================
 Model                : PCM.
 Atomic radii         : UFF (Universal Force Field).
 Polarization charges : Total charges.
 Charge compensation  : None.
 Solution method      : On-the-fly selection.
 Cavity type          : Scaled VdW (van der Waals Surface) (Alpha=1.100).
 Cavity algorithm     : GePol (No added spheres)
                        Default sphere list used, NSphG=   38.
                        Lebedev-Laikov grids with approx.  5.0 points / Ang**2.
                        Smoothing algorithm: York/Karplus (Gamma=1.0000).
                        Polarization charges: spherical gaussians, with
                                              point-specific exponents (IZeta= 3).
                        Self-potential: point-specific (ISelfS= 7).
                        Self-field    : sphere-specific E.n sum rule (ISelfD= 2).
 Solvent              : Acetonitrile, Eps=  35.688000 Eps(inf)=   1.806874
 ------------------------------------------------------------------------------
 GePol: Number of generator spheres                  =      38
 GePol: Total number of spheres                      =      38
 GePol: Number of exposed spheres                    =      38 (100.00%)
 GePol: Number of points                             =    2748
 GePol: Average weight of points                     =       0.13
 GePol: Minimum weight of points                     =   0.72D-11
 GePol: Maximum weight of points                     =    0.20577
 GePol: Number of points with low weight             =     172
 GePol: Fraction of low-weight points (<1% of avg)   =       6.26%
 GePol: Cavity surface area                          =    357.681 Ang**2
 GePol: Cavity volume                                =    394.946 Ang**3
 Leave Link  301 at Thu Feb  6 16:30:24 2025, MaxMem= 25501368320 cpu:               3.5 elap:               0.1
 (Enter /share/Apps/gaussian/g16/l302.exe)
 NPDir=0 NMtPBC=     1 NCelOv=     1 NCel=       1 NClECP=     1 NCelD=      1
         NCelK=      1 NCelE2=     1 NClLst=     1 CellRange=     0.0.
 One-electron integrals computed using PRISM.
 One-electron integral symmetry used in STVInt
 NBasis=   480 RedAO= T EigKep=  1.24D-04  NBF=   480
 NBsUse=   480 1.00D-06 EigRej= -1.00D+00 NBFU=   480
 Precomputing XC quadrature grid using
 IXCGrd= 4 IRadAn=           5 IRanWt=          -1 IRanGd=           0 AccXCQ= 0.00D+00.
 Generated NRdTot=       0 NPtTot=           0 NUsed=           0 NTot=          32
 NSgBfM=   501   501   501   501   501 MxSgAt=    38 MxSgA2=    38.
 Leave Link  302 at Thu Feb  6 16:30:25 2025, MaxMem= 25501368320 cpu:              18.4 elap:               0.6
 (Enter /share/Apps/gaussian/g16/l303.exe)
 DipDrv:  MaxL=1.
 Leave Link  303 at Thu Feb  6 16:30:25 2025, MaxMem= 25501368320 cpu:               4.2 elap:               0.2
 (Enter /share/Apps/gaussian/g16/l308.exe)
 Leave Link  308 at Thu Feb  6 16:30:25 2025, MaxMem= 25501368320 cpu:               3.6 elap:               0.2
 (Enter /share/Apps/gaussian/g16/l401.exe)
 ExpMin= 1.03D-01 ExpMax= 8.59D+03 ExpMxC= 1.30D+03 IAcc=3 IRadAn=         5 AccDes= 0.00D+00
 Harris functional with IExCor=20419 and IRadAn=       5 diagonalized for initial guess.
 HarFok:  IExCor=20419 AccDes= 0.00D+00 IRadAn=         5 IDoV= 1 UseB2=F ITyADJ=14
 ICtDFT=  3500011 ScaDFX=  1.000000  1.000000  1.000000  1.000000
 FoFCou: FMM=F IPFlag=           0 FMFlag=      100000 FMFlg1=           0
         NFxFlg=           0 DoJE=T BraDBF=F KetDBF=T FulRan=T
         wScrn=  0.000000 ICntrl=       500 IOpCl=  0 I1Cent=   200000004 NGrid=           0
         NMat0=    1 NMatS0=      1 NMatT0=    0 NMatD0=    1 NMtDS0=    0 NMtDT0=    0
 Petite list used in FoFCou.
 Harris En= -862.008881329950    
 JPrj=0 DoOrth=F DoCkMO=F.
 Leave Link  401 at Thu Feb  6 16:30:26 2025, MaxMem= 25501368320 cpu:              31.1 elap:               0.9
 (Enter /share/Apps/gaussian/g16/l502.exe)
 Integral symmetry usage will be decided dynamically.
 Closed shell SCF:
 Using DIIS extrapolation, IDIIS=  1040.
 NGot= 25501368320 LenX= 25500842405 LenY= 25500590903
 Requested convergence on RMS density matrix=1.00D-08 within 128 cycles.
 Requested convergence on MAX density matrix=1.00D-06.
 Requested convergence on             energy=1.00D-06.
 No special actions if energy rises.
 Fock matrices will be formed incrementally for  20 cycles.

 Cycle   1  Pass 1  IDiag  1:
 FoFJK:  IHMeth= 1 ICntrl=       0 DoSepK=T KAlg= 0 I1Cent=           0 FoldK=F
 IRaf=         1 NMat=       1 IRICut=       1 DoRegI=T DoRafI=F ISym2E= 0 IDoP0=0 IntGTp=1.
 FoFCou: FMM=F IPFlag=           0 FMFlag=      100000 FMFlg1=           0
         NFxFlg=           0 DoJE=T BraDBF=F KetDBF=F FulRan=T
         wScrn=  0.000000 ICntrl=       500 IOpCl=  0 I1Cent=           0 NGrid=           0
         NMat0=    1 NMatS0=      1 NMatT0=    0 NMatD0=    1 NMtDS0=    0 NMtDT0=    0
 Symmetry not used in FoFCou.
 Inv3:  Mode=1 IEnd=    22654512.
 Iteration    1 A*A^-1 deviation from unit magnitude is 3.33D-15 for   1766.
 Iteration    1 A*A^-1 deviation from orthogonality  is 2.05D-15 for   2244   1214.
 Iteration    1 A^-1*A deviation from unit magnitude is 3.11D-15 for   1766.
 Iteration    1 A^-1*A deviation from orthogonality  is 5.60D-15 for   2241   2221.
 E= -896.912464863549    
 DIIS: error= 4.71D-02 at cycle   1 NSaved=   1.
 NSaved= 1 IEnMin= 1 EnMin= -896.912464863549     IErMin= 1 ErrMin= 4.71D-02
 ErrMax= 4.71D-02  0.00D+00 EMaxC= 1.00D-01 BMatC= 1.59D+00 BMatP= 1.59D+00
 IDIUse=3 WtCom= 5.29D-01 WtEn= 4.71D-01
 Coeff-Com:  0.100D+01
 Coeff-En:   0.100D+01
 Coeff:      0.100D+01
 Gap=     0.331 Goal=   None    Shift=    0.000
 GapD=    0.331 DampG=1.000 DampE=0.500 DampFc=0.5000 IDamp=-1.
 Damping current iteration by 5.00D-01
 RMSDP=2.21D-03 MaxDP=9.37D-02              OVMax= 1.46D-01

 Cycle   2  Pass 1  IDiag  1:
 RMSU=  1.06D-03    CP:  9.67D-01
 E= -897.049732346655     Delta-E=       -0.137267483105 Rises=F Damp=T
 DIIS: error= 2.31D-02 at cycle   2 NSaved=   2.
 NSaved= 2 IEnMin= 2 EnMin= -897.049732346655     IErMin= 2 ErrMin= 2.31D-02
 ErrMax= 2.31D-02  0.00D+00 EMaxC= 1.00D-01 BMatC= 3.19D-01 BMatP= 1.59D+00
 IDIUse=3 WtCom= 7.69D-01 WtEn= 2.31D-01
 Coeff-Com: -0.478D+00 0.148D+01
 Coeff-En:   0.000D+00 0.100D+01
 Coeff:     -0.367D+00 0.137D+01
 Gap=     0.304 Goal=   None    Shift=    0.000
 RMSDP=8.52D-04 MaxDP=4.17D-02 DE=-1.37D-01 OVMax= 1.33D-01

 Cycle   3  Pass 1  IDiag  1:
 RMSU=  8.15D-04    CP:  9.74D-01  7.79D-01
 E= -897.127326657730     Delta-E=       -0.077594311075 Rises=F Damp=F
 DIIS: error= 1.22D-02 at cycle   3 NSaved=   3.
 NSaved= 3 IEnMin= 3 EnMin= -897.127326657730     IErMin= 3 ErrMin= 1.22D-02
 ErrMax= 1.22D-02  0.00D+00 EMaxC= 1.00D-01 BMatC= 1.11D-01 BMatP= 3.19D-01
 IDIUse=3 WtCom= 8.78D-01 WtEn= 1.22D-01
 Coeff-Com: -0.335D+00 0.728D+00 0.608D+00
 Coeff-En:   0.000D+00 0.000D+00 0.100D+01
 Coeff:     -0.295D+00 0.639D+00 0.656D+00
 Gap=     0.241 Goal=   None    Shift=    0.000
 RMSDP=7.46D-04 MaxDP=4.62D-02 DE=-7.76D-02 OVMax= 6.00D-02

 Cycle   4  Pass 1  IDiag  1:
 RMSU=  2.22D-04    CP:  9.54D-01  1.35D+00  5.93D-01
 E= -897.210344722711     Delta-E=       -0.083018064982 Rises=F Damp=F
 DIIS: error= 3.25D-03 at cycle   4 NSaved=   4.
 NSaved= 4 IEnMin= 4 EnMin= -897.210344722711     IErMin= 4 ErrMin= 3.25D-03
 ErrMax= 3.25D-03  0.00D+00 EMaxC= 1.00D-01 BMatC= 6.46D-03 BMatP= 1.11D-01
 IDIUse=3 WtCom= 9.67D-01 WtEn= 3.25D-02
 Coeff-Com: -0.154D+00 0.334D+00 0.367D+00 0.454D+00
 Coeff-En:   0.000D+00 0.000D+00 0.000D+00 0.100D+01
 Coeff:     -0.149D+00 0.323D+00 0.355D+00 0.472D+00
 Gap=     0.224 Goal=   None    Shift=    0.000
 RMSDP=1.37D-04 MaxDP=8.99D-03 DE=-8.30D-02 OVMax= 1.27D-02

 Cycle   5  Pass 1  IDiag  1:
 RMSU=  8.60D-05    CP:  9.55D-01  1.31D+00  6.74D-01  6.69D-01
 E= -897.215067606705     Delta-E=       -0.004722883994 Rises=F Damp=F
 DIIS: error= 3.05D-04 at cycle   5 NSaved=   5.
 NSaved= 5 IEnMin= 5 EnMin= -897.215067606705     IErMin= 5 ErrMin= 3.05D-04
 ErrMax= 3.05D-04  0.00D+00 EMaxC= 1.00D-01 BMatC= 4.54D-05 BMatP= 6.46D-03
 IDIUse=3 WtCom= 9.97D-01 WtEn= 3.05D-03
 Coeff-Com:  0.432D-02-0.982D-02 0.834D-02 0.842D-01 0.913D+00
 Coeff-En:   0.000D+00 0.000D+00 0.000D+00 0.000D+00 0.100D+01
 Coeff:      0.431D-02-0.979D-02 0.832D-02 0.840D-01 0.913D+00
 Gap=     0.225 Goal=   None    Shift=    0.000
 RMSDP=2.76D-05 MaxDP=1.03D-03 DE=-4.72D-03 OVMax= 5.76D-03

 Cycle   6  Pass 1  IDiag  1:
 RMSU=  2.14D-05    CP:  9.55D-01  1.31D+00  6.88D-01  7.30D-01  9.82D-01
 E= -897.215146396308     Delta-E=       -0.000078789603 Rises=F Damp=F
 DIIS: error= 1.53D-04 at cycle   6 NSaved=   6.
 NSaved= 6 IEnMin= 6 EnMin= -897.215146396308     IErMin= 6 ErrMin= 1.53D-04
 ErrMax= 1.53D-04  0.00D+00 EMaxC= 1.00D-01 BMatC= 1.56D-05 BMatP= 4.54D-05
 IDIUse=3 WtCom= 9.98D-01 WtEn= 1.53D-03
 Coeff-Com:  0.147D-01-0.322D-01-0.277D-01-0.109D-01 0.399D+00 0.657D+00
 Coeff-En:   0.000D+00 0.000D+00 0.000D+00 0.000D+00 0.000D+00 0.100D+01
 Coeff:      0.147D-01-0.321D-01-0.276D-01-0.108D-01 0.398D+00 0.658D+00
 Gap=     0.226 Goal=   None    Shift=    0.000
 RMSDP=1.41D-05 MaxDP=4.68D-04 DE=-7.88D-05 OVMax= 1.61D-03

 Cycle   7  Pass 1  IDiag  1:
 RMSU=  6.76D-06    CP:  9.55D-01  1.31D+00  6.90D-01  7.33D-01  1.11D+00
                    CP:  1.03D+00
 E= -897.215165211752     Delta-E=       -0.000018815444 Rises=F Damp=F
 DIIS: error= 4.93D-05 at cycle   7 NSaved=   7.
 NSaved= 7 IEnMin= 7 EnMin= -897.215165211752     IErMin= 7 ErrMin= 4.93D-05
 ErrMax= 4.93D-05  0.00D+00 EMaxC= 1.00D-01 BMatC= 1.33D-06 BMatP= 1.56D-05
 IDIUse=1 WtCom= 1.00D+00 WtEn= 0.00D+00
 Coeff-Com:  0.385D-02-0.834D-02-0.965D-02-0.164D-01 0.111D-01 0.217D+00
 Coeff-Com:  0.802D+00
 Coeff:      0.385D-02-0.834D-02-0.965D-02-0.164D-01 0.111D-01 0.217D+00
 Coeff:      0.802D+00
 Gap=     0.226 Goal=   None    Shift=    0.000
 RMSDP=4.84D-06 MaxDP=1.61D-04 DE=-1.88D-05 OVMax= 9.88D-04

 Cycle   8  Pass 1  IDiag  1:
 RMSU=  2.72D-06    CP:  9.55D-01  1.31D+00  6.90D-01  7.37D-01  1.13D+00
                    CP:  1.18D+00  1.01D+00
 E= -897.215167762479     Delta-E=       -0.000002550727 Rises=F Damp=F
 DIIS: error= 1.90D-05 at cycle   8 NSaved=   8.
 NSaved= 8 IEnMin= 8 EnMin= -897.215167762479     IErMin= 8 ErrMin= 1.90D-05
 ErrMax= 1.90D-05  0.00D+00 EMaxC= 1.00D-01 BMatC= 3.10D-07 BMatP= 1.33D-06
 IDIUse=1 WtCom= 1.00D+00 WtEn= 0.00D+00
 Coeff-Com: -0.593D-03 0.133D-02 0.508D-04-0.579D-02-0.496D-01-0.136D-01
 Coeff-Com:  0.345D+00 0.723D+00
 Coeff:     -0.593D-03 0.133D-02 0.508D-04-0.579D-02-0.496D-01-0.136D-01
 Coeff:      0.345D+00 0.723D+00
 Gap=     0.226 Goal=   None    Shift=    0.000
 RMSDP=1.96D-06 MaxDP=7.89D-05 DE=-2.55D-06 OVMax= 3.13D-04

 Cycle   9  Pass 1  IDiag  1:
 RMSU=  9.99D-07    CP:  9.55D-01  1.32D+00  6.90D-01  7.38D-01  1.15D+00
                    CP:  1.22D+00  1.14D+00  9.89D-01
 E= -897.215168221504     Delta-E=       -0.000000459025 Rises=F Damp=F
 DIIS: error= 7.12D-06 at cycle   9 NSaved=   9.
 NSaved= 9 IEnMin= 9 EnMin= -897.215168221504     IErMin= 9 ErrMin= 7.12D-06
 ErrMax= 7.12D-06  0.00D+00 EMaxC= 1.00D-01 BMatC= 3.32D-08 BMatP= 3.10D-07
 IDIUse=1 WtCom= 1.00D+00 WtEn= 0.00D+00
 Coeff-Com: -0.732D-03 0.160D-02 0.118D-02-0.760D-03-0.201D-01-0.403D-01
 Coeff-Com:  0.342D-01 0.273D+00 0.752D+00
 Coeff:     -0.732D-03 0.160D-02 0.118D-02-0.760D-03-0.201D-01-0.403D-01
 Coeff:      0.342D-01 0.273D+00 0.752D+00
 Gap=     0.226 Goal=   None    Shift=    0.000
 RMSDP=8.08D-07 MaxDP=3.13D-05 DE=-4.59D-07 OVMax= 1.32D-04

 Cycle  10  Pass 1  IDiag  1:
 RMSU=  3.65D-07    CP:  9.55D-01  1.32D+00  6.90D-01  7.37D-01  1.15D+00
                    CP:  1.23D+00  1.19D+00  1.11D+00  1.09D+00
 E= -897.215168280751     Delta-E=       -0.000000059247 Rises=F Damp=F
 DIIS: error= 3.19D-06 at cycle  10 NSaved=  10.
 NSaved=10 IEnMin=10 EnMin= -897.215168280751     IErMin=10 ErrMin= 3.19D-06
 ErrMax= 3.19D-06  0.00D+00 EMaxC= 1.00D-01 BMatC= 3.98D-09 BMatP= 3.32D-08
 IDIUse=1 WtCom= 1.00D+00 WtEn= 0.00D+00
 Coeff-Com: -0.190D-03 0.406D-03 0.373D-03 0.178D-03-0.508D-03-0.131D-01
 Coeff-Com: -0.238D-01-0.563D-02 0.229D+00 0.814D+00
 Coeff:     -0.190D-03 0.406D-03 0.373D-03 0.178D-03-0.508D-03-0.131D-01
 Coeff:     -0.238D-01-0.563D-02 0.229D+00 0.814D+00
 Gap=     0.226 Goal=   None    Shift=    0.000
 RMSDP=3.13D-07 MaxDP=1.05D-05 DE=-5.92D-08 OVMax= 4.88D-05

 Cycle  11  Pass 1  IDiag  1:
 RMSU=  1.41D-07    CP:  9.55D-01  1.32D+00  6.90D-01  7.37D-01  1.15D+00
                    CP:  1.24D+00  1.20D+00  1.15D+00  1.23D+00  1.17D+00
 E= -897.215168288868     Delta-E=       -0.000000008117 Rises=F Damp=F
 DIIS: error= 1.08D-06 at cycle  11 NSaved=  11.
 NSaved=11 IEnMin=11 EnMin= -897.215168288868     IErMin=11 ErrMin= 1.08D-06
 ErrMax= 1.08D-06  0.00D+00 EMaxC= 1.00D-01 BMatC= 8.40D-10 BMatP= 3.98D-09
 IDIUse=1 WtCom= 1.00D+00 WtEn= 0.00D+00
 Coeff-Com:  0.358D-04-0.823D-04-0.452D-04 0.148D-03 0.331D-02 0.745D-03
 Coeff-Com: -0.129D-01-0.494D-01-0.272D-01 0.342D+00 0.743D+00
 Coeff:      0.358D-04-0.823D-04-0.452D-04 0.148D-03 0.331D-02 0.745D-03
 Coeff:     -0.129D-01-0.494D-01-0.272D-01 0.342D+00 0.743D+00
 Gap=     0.226 Goal=   None    Shift=    0.000
 RMSDP=1.37D-07 MaxDP=5.95D-06 DE=-8.12D-09 OVMax= 2.44D-05

 Cycle  12  Pass 1  IDiag  1:
 RMSU=  6.83D-08    CP:  9.55D-01  1.32D+00  6.90D-01  7.37D-01  1.15D+00
                    CP:  1.24D+00  1.20D+00  1.17D+00  1.28D+00  1.34D+00
                    CP:  1.13D+00
 E= -897.215168290593     Delta-E=       -0.000000001725 Rises=F Damp=F
 DIIS: error= 3.94D-07 at cycle  12 NSaved=  12.
 NSaved=12 IEnMin=12 EnMin= -897.215168290593     IErMin=12 ErrMin= 3.94D-07
 ErrMax= 3.94D-07  0.00D+00 EMaxC= 1.00D-01 BMatC= 1.05D-10 BMatP= 8.40D-10
 IDIUse=1 WtCom= 1.00D+00 WtEn= 0.00D+00
 Coeff-Com:  0.393D-04-0.851D-04-0.777D-04 0.883D-05 0.927D-03 0.208D-02
 Coeff-Com:  0.146D-02-0.128D-01-0.426D-01-0.506D-01 0.194D+00 0.907D+00
 Coeff:      0.393D-04-0.851D-04-0.777D-04 0.883D-05 0.927D-03 0.208D-02
 Coeff:      0.146D-02-0.128D-01-0.426D-01-0.506D-01 0.194D+00 0.907D+00
 Gap=     0.226 Goal=   None    Shift=    0.000
 RMSDP=6.66D-08 MaxDP=2.15D-06 DE=-1.73D-09 OVMax= 1.41D-05

 Cycle  13  Pass 1  IDiag  1:
 RMSU=  2.44D-08    CP:  9.55D-01  1.32D+00  6.90D-01  7.37D-01  1.15D+00
                    CP:  1.24D+00  1.20D+00  1.17D+00  1.31D+00  1.42D+00
                    CP:  1.38D+00  1.30D+00
 E= -897.215168290910     Delta-E=       -0.000000000317 Rises=F Damp=F
 DIIS: error= 2.18D-07 at cycle  13 NSaved=  13.
 NSaved=13 IEnMin=13 EnMin= -897.215168290910     IErMin=13 ErrMin= 2.18D-07
 ErrMax= 2.18D-07  0.00D+00 EMaxC= 1.00D-01 BMatC= 2.89D-11 BMatP= 1.05D-10
 IDIUse=1 WtCom= 1.00D+00 WtEn= 0.00D+00
 Coeff-Com:  0.902D-05-0.187D-04-0.240D-04-0.231D-04-0.221D-03 0.727D-03
 Coeff-Com:  0.343D-02 0.342D-02-0.135D-01-0.879D-01-0.423D-01 0.441D+00
 Coeff-Com:  0.696D+00
 Coeff:      0.902D-05-0.187D-04-0.240D-04-0.231D-04-0.221D-03 0.727D-03
 Coeff:      0.343D-02 0.342D-02-0.135D-01-0.879D-01-0.423D-01 0.441D+00
 Coeff:      0.696D+00
 Gap=     0.226 Goal=   None    Shift=    0.000
 RMSDP=2.85D-08 MaxDP=1.08D-06 DE=-3.17D-10 OVMax= 7.22D-06

 Cycle  14  Pass 1  IDiag  1:
 RMSU=  1.43D-08    CP:  9.55D-01  1.32D+00  6.90D-01  7.37D-01  1.15D+00
                    CP:  1.24D+00  1.20D+00  1.17D+00  1.32D+00  1.45D+00
                    CP:  1.47D+00  1.51D+00  9.65D-01
 E= -897.215168290970     Delta-E=       -0.000000000060 Rises=F Damp=F
 DIIS: error= 1.08D-07 at cycle  14 NSaved=  14.
 NSaved=14 IEnMin=14 EnMin= -897.215168290970     IErMin=14 ErrMin= 1.08D-07
 ErrMax= 1.08D-07  0.00D+00 EMaxC= 1.00D-01 BMatC= 7.34D-12 BMatP= 2.89D-11
 IDIUse=1 WtCom= 1.00D+00 WtEn= 0.00D+00
 Coeff-Com: -0.245D-05 0.567D-05 0.221D-05-0.144D-04-0.275D-03-0.237D-04
 Coeff-Com:  0.143D-02 0.411D-02 0.990D-03-0.357D-01-0.609D-01 0.299D-01
 Coeff-Com:  0.367D+00 0.693D+00
 Coeff:     -0.245D-05 0.567D-05 0.221D-05-0.144D-04-0.275D-03-0.237D-04
 Coeff:      0.143D-02 0.411D-02 0.990D-03-0.357D-01-0.609D-01 0.299D-01
 Coeff:      0.367D+00 0.693D+00
 Gap=     0.226 Goal=   None    Shift=    0.000
 RMSDP=1.34D-08 MaxDP=5.78D-07 DE=-6.00D-11 OVMax= 2.96D-06

 Cycle  15  Pass 1  IDiag  1:
 RMSU=  5.51D-09    CP:  9.55D-01  1.32D+00  6.90D-01  7.37D-01  1.15D+00
                    CP:  1.24D+00  1.20D+00  1.17D+00  1.32D+00  1.46D+00
                    CP:  1.51D+00  1.60D+00  1.21D+00  1.11D+00
 E= -897.215168290987     Delta-E=       -0.000000000017 Rises=F Damp=F
 DIIS: error= 3.64D-08 at cycle  15 NSaved=  15.
 NSaved=15 IEnMin=15 EnMin= -897.215168290987     IErMin=15 ErrMin= 3.64D-08
 ErrMax= 3.64D-08  0.00D+00 EMaxC= 1.00D-01 BMatC= 7.50D-13 BMatP= 7.34D-12
 IDIUse=1 WtCom= 1.00D+00 WtEn= 0.00D+00
 Coeff-Com: -0.217D-05 0.467D-05 0.486D-05-0.199D-05-0.413D-04-0.157D-03
 Coeff-Com: -0.256D-03 0.550D-03 0.327D-02 0.718D-02-0.110D-01-0.827D-01
 Coeff-Com:  0.965D-03 0.225D+00 0.857D+00
 Coeff:     -0.217D-05 0.467D-05 0.486D-05-0.199D-05-0.413D-04-0.157D-03
 Coeff:     -0.256D-03 0.550D-03 0.327D-02 0.718D-02-0.110D-01-0.827D-01
 Coeff:      0.965D-03 0.225D+00 0.857D+00
 Gap=     0.226 Goal=   None    Shift=    0.000
 RMSDP=6.38D-09 MaxDP=2.19D-07 DE=-1.73D-11 OVMax= 1.58D-06

 Error on total polarization charges =  0.01434
 SCF Done:  E(RCAM-B3LYP) =  -897.215168291     A.U. after   15 cycles
            NFock= 15  Conv=0.64D-08     -V/T= 2.0032
 KE= 8.943093288895D+02 PE=-5.302083702780D+03 EE= 1.904221344600D+03
 Leave Link  502 at Thu Feb  6 16:31:19 2025, MaxMem= 25501368320 cpu:            1848.5 elap:              52.5
 (Enter /share/Apps/gaussian/g16/l801.exe)
 DoSCS=F DFT=T ScalE2(SS,OS)=  1.000000  1.000000
 ExpMin= 1.03D-01 ExpMax= 8.59D+03 ExpMxC= 1.30D+03 IAcc=3 IRadAn=         5 AccDes= 0.00D+00
 HarFok:  IExCor=  205 AccDes= 0.00D+00 IRadAn=         5 IDoV=-2 UseB2=F ITyADJ=14
 ICtDFT= 12500011 ScaDFX=  1.000000  1.000000  1.000000  1.000000
 GSVD:  LWork=        -609 too small for GESVD, short by        2520 words or        2520 for optimal perf.
 Largest valence mixing into a core orbital is  5.15D-05
 Largest core mixing into a valence orbital is  1.71D-05
 Range of M.O.s used for correlation:    22   480
 NBasis=   480 NAE=    74 NBE=    74 NFC=    21 NFV=     0
 NROrb=    459 NOA=    53 NOB=    53 NVA=   406 NVB=   406

 **** Warning!!: The largest alpha MO coefficient is  0.16582099D+02

 Leave Link  801 at Thu Feb  6 16:31:19 2025, MaxMem= 25501368320 cpu:               5.3 elap:               0.2
 (Enter /share/Apps/gaussian/g16/l914.exe)
 RHF ground state
 Two-electron integrals replicated using symmetry.
 MDV= 25501368320 DFT=T DoStab=F Mixed=T DoRPA=T DoScal=F NonHer=T
 NEqPCM:  Using non-equilibrium solvation (IEInf=1, Eps=  35.6880, EpsInf=   1.8069)
 Inv3:  Mode=1 IEnd=    22654512.
 Iteration    1 A*A^-1 deviation from unit magnitude is 3.11D-15 for     79.
 Iteration    1 A*A^-1 deviation from orthogonality  is 2.15D-15 for   2308    725.
 Iteration    1 A^-1*A deviation from unit magnitude is 3.33D-15 for   2625.
 Iteration    1 A^-1*A deviation from orthogonality  is 1.97D-15 for   2417    975.
 Making orbital integer symmetry assigments:
 Orbital symmetries:
       Occupied  (A) (A) (A) (A) (A) (A) (A) (A) (A) (A) (A) (A)
                 (A) (A) (A) (A) (A) (A) (A) (A) (A) (A) (A) (A)
                 (A) (A) (A) (A) (A) (A) (A) (A) (A) (A) (A) (A)
                 (A) (A) (A) (A) (A) (A) (A) (A) (A) (A) (A) (A)
                 (A) (A) (A) (A) (A) (A) (A) (A) (A) (A) (A) (A)
                 (A) (A) (A) (A) (A) (A) (A) (A) (A) (A) (A) (A)
                 (A) (A)
       Virtual   (A) (A) (A) (A) (A) (A) (A) (A) (A) (A) (A) (A)
                 (A) (A) (A) (A) (A) (A) (A) (A) (A) (A) (A) (A)
                 (A) (A) (A) (A) (A) (A) (A) (A) (A) (A) (A) (A)
                 (A) (A) (A) (A) (A) (A) (A) (A) (A) (A) (A) (A)
                 (A) (A) (A) (A) (A) (A) (A) (A) (A) (A) (A) (A)
                 (A) (A) (A) (A) (A) (A) (A) (A) (A) (A) (A) (A)
                 (A) (A) (A) (A) (A) (A) (A) (A) (A) (A) (A) (A)
                 (A) (A) (A) (A) (A) (A) (A) (A) (A) (A) (A) (A)
                 (A) (A) (A) (A) (A) (A) (A) (A) (A) (A) (A) (A)
                 (A) (A) (A) (A) (A) (A) (A) (A) (A) (A) (A) (A)
                 (A) (A) (A) (A) (A) (A) (A) (A) (A) (A) (A) (A)
                 (A) (A) (A) (A) (A) (A) (A) (A) (A) (A) (A) (A)
                 (A) (A) (A) (A) (A) (A) (A) (A) (A) (A) (A) (A)
                 (A) (A) (A) (A) (A) (A) (A) (A) (A) (A) (A) (A)
                 (A) (A) (A) (A) (A) (A) (A) (A) (A) (A) (A) (A)
                 (A) (A) (A) (A) (A) (A) (A) (A) (A) (A) (A) (A)
                 (A) (A) (A) (A) (A) (A) (A) (A) (A) (A) (A) (A)
                 (A) (A) (A) (A) (A) (A) (A) (A) (A) (A) (A) (A)
                 (A) (A) (A) (A) (A) (A) (A) (A) (A) (A) (A) (A)
                 (A) (A) (A) (A) (A) (A) (A) (A) (A) (A) (A) (A)
                 (A) (A) (A) (A) (A) (A) (A) (A) (A) (A) (A) (A)
                 (A) (A) (A) (A) (A) (A) (A) (A) (A) (A) (A) (A)
                 (A) (A) (A) (A) (A) (A) (A) (A) (A) (A) (A) (A)
                 (A) (A) (A) (A) (A) (A) (A) (A) (A) (A) (A) (A)
                 (A) (A) (A) (A) (A) (A) (A) (A) (A) (A) (A) (A)
                 (A) (A) (A) (A) (A) (A) (A) (A) (A) (A) (A) (A)
                 (A) (A) (A) (A) (A) (A) (A) (A) (A) (A) (A) (A)
                 (A) (A) (A) (A) (A) (A) (A) (A) (A) (A) (A) (A)
                 (A) (A) (A) (A) (A) (A) (A) (A) (A) (A) (A) (A)
                 (A) (A) (A) (A) (A) (A) (A) (A) (A) (A) (A) (A)
                 (A) (A) (A) (A) (A) (A) (A) (A) (A) (A) (A) (A)
                 (A) (A) (A) (A) (A) (A) (A) (A) (A) (A) (A) (A)
                 (A) (A) (A) (A) (A) (A) (A) (A) (A) (A) (A) (A)
                 (A) (A) (A) (A) (A) (A) (A) (A) (A) (A)
    80 initial guesses have been made.
 Convergence on wavefunction:    0.001000000000000
 Davidson Disk Diagonalization:  ConvIn= 1.00D-03 SkipCon=T Conv= 1.00D-03.
 Max sub-space:  2000 roots to seek:    80 dimension of matrix:        43036
 Iteration     1 Dimension    80 NMult     0 NNew     80
 CISAX will form    80 AO SS matrices at one time.
 NMat=    80 NSing=    80 JSym2X= 0.
 FoFJK:  IHMeth= 1 ICntrl=       0 DoSepK=T KAlg= 0 I1Cent=           0 FoldK=F
 IRaf=         1 NMat=     160 IRICut=       1 DoRegI=T DoRafI=F ISym2E= 0 IDoP0=3 IntGTp=3.
 New state      2 was old state      6
 New state      3 was old state      2
 New state      4 was old state      5
 New state      5 was old state      4
 New state      6 was old state      3
 New state      7 was old state     11
 New state      8 was old state      7
 New state      9 was old state     10
 New state     10 was old state      8
 New state     11 was old state     12
 New state     12 was old state     17
 New state     13 was old state      9
 New state     16 was old state     13
 New state     17 was old state     16
 New state     18 was old state     22
 New state     19 was old state     29
 New state     20 was old state     19
 Excitation Energies [eV] at current iteration:
 Root      1 :     3.021784172553859
 Root      2 :     4.503287790600578
 Root      3 :     4.748965264233685
 Root      4 :     4.883881799350826
 Root      5 :     4.991258731034928
 Root      6 :     5.229893302162514
 Root      7 :     5.333031129818606
 Root      8 :     5.672930222938148
 Root      9 :     6.081733592789670
 Root     10 :     6.089542001197890
 Root     11 :     6.231295903734730
 Root     12 :     6.316897105163130
 Root     13 :     6.333399521412182
 Root     14 :     6.526168549530104
 Root     15 :     6.597243306898472
 Root     16 :     6.673430524437241
 Root     17 :     6.724264566655678
 Root     18 :     6.930620029509620
 Root     19 :     7.023428424792121
 Root     20 :     7.085525393397769
 Root     21 :     7.170310069415138
 Root     22 :     7.326694801748388
 Root     23 :     7.365729113577523
 Root     24 :     7.412994655833159
 Root     25 :     7.463323428988904
 Root     26 :     7.579011391251480
 Root     27 :     7.592922036312692
 Root     28 :     7.627563660157934
 Root     29 :     7.663293320466616
 Root     30 :     7.710983813051119
 Root     31 :     7.775528333490113
 Root     32 :     7.824764881364675
 Root     33 :     7.883963683830022
 Root     34 :     7.961090191294983
 Root     35 :     8.010696112857756
 Root     36 :     8.035769501269490
 Root     37 :     8.056481186849096
 Root     38 :     8.145105330571491
 Root     39 :     8.216559542054128
 Root     40 :     8.279893860194912
 Root     41 :     8.308200674828791
 Root     42 :     8.361564437608520
 Root     43 :     8.373408147648854
 Root     44 :     8.447882100645060
 Root     45 :     8.478980585099626
 Root     46 :     8.496129397128390
 Root     47 :     8.544134365185043
 Root     48 :     8.569681442573817
 Root     49 :     8.651300710850389
 Root     50 :     8.658252583306965
 Root     51 :     8.725147663019515
 Root     52 :     8.753577030118894
 Root     53 :     8.791191189639564
 Root     54 :     8.845584959249047
 Root     55 :     8.866195913895170
 Root     56 :     8.893890736176795
 Root     57 :     8.924560700113160
 Root     58 :     8.940765182204544
 Root     59 :     8.952361817319098
 Root     60 :     8.990874539683182
 Root     61 :     8.999060163652558
 Root     62 :     9.029663475221087
 Root     63 :     9.086752075877502
 Root     64 :     9.177668573724974
 Root     65 :     9.239126564698868
 Root     66 :     9.269800029363337
 Root     67 :     9.335580577767548
 Root     68 :     9.369231455957298
 Root     69 :     9.373449633493024
 Root     70 :     9.380462878303122
 Root     71 :     9.426738796035117
 Root     72 :     9.458924204795622
 Root     73 :     9.526073368224399
 Root     74 :     9.565844627062789
 Root     75 :     9.582023000489867
 Root     76 :     9.592768110381677
 Root     77 :     9.618156333436243
 Root     78 :     9.706979407994453
 Root     79 :     9.741869491131498
 Root     80 :     9.767076263629550
 Iteration     2 Dimension   120 NMult    80 NNew     40
 CISAX will form    40 AO SS matrices at one time.
 NMat=    40 NSing=    40 JSym2X= 0.
 Root      1 not converged, maximum delta is    0.031270777665935
 Root      2 not converged, maximum delta is    0.072611488373262
 Root      3 not converged, maximum delta is    0.177507627469542
 New state      4 was old state      5
 Root      4 not converged, maximum delta is    0.250173913081625
 New state      5 was old state      4
 Root      5 not converged, maximum delta is    0.169764902924106
 Root      6 not converged, maximum delta is    0.141650495153532
 Root      7 not converged, maximum delta is    0.182863856989868
 Root      8 not converged, maximum delta is    0.069837196640694
 New state      9 was old state     10
 Root      9 not converged, maximum delta is    0.358891611221381
 New state     10 was old state     11
 Root     10 not converged, maximum delta is    0.453754752488650
 New state     11 was old state      9
 Root     11 not converged, maximum delta is    0.332895355336293
 New state     12 was old state     13
 Root     12 not converged, maximum delta is    0.337139930237084
 New state     13 was old state     12
 Root     13 not converged, maximum delta is    0.232814366089161
 Root     14 not converged, maximum delta is    0.400353669743143
 Root     15 not converged, maximum delta is    0.214758111481198
 Root     16 not converged, maximum delta is    0.219204882070496
 New state     17 was old state     19
 Root     17 not converged, maximum delta is    0.394875977142076
 New state     18 was old state     17
 Root     18 not converged, maximum delta is    0.186669997129503
 New state     19 was old state     18
 Root     19 not converged, maximum delta is    0.125515444178136
 New state     20 was old state     21
 Root     20 not converged, maximum delta is    0.236686787083036
 Excitation Energies [eV] at current iteration:
 Root      1 :     2.783692895919341   Change is   -0.238091276634518
 Root      2 :     4.138165672580100   Change is   -0.365122118020478
 Root      3 :     4.538693066599122   Change is   -0.210272197634563
 Root      4 :     4.661279203584503   Change is   -0.329979527450425
 Root      5 :     4.735074792946271   Change is   -0.148807006404555
 Root      6 :     4.991170260579968   Change is   -0.238723041582546
 Root      7 :     5.162381110308238   Change is   -0.170650019510368
 Root      8 :     5.535601006400342   Change is   -0.137329216537805
 Root      9 :     5.795376713274493   Change is   -0.294165287923398
 Root     10 :     5.859691933624347   Change is   -0.371603970110383
 Root     11 :     5.914433720883604   Change is   -0.167299871906066
 Root     12 :     6.039761093076238   Change is   -0.293638428335944
 Root     13 :     6.183656560036198   Change is   -0.133240545126932
 Root     14 :     6.267116240485148   Change is   -0.259052309044957
 Root     15 :     6.444013598723771   Change is   -0.153229708174700
 Root     16 :     6.523961550907673   Change is   -0.149468973529568
 Root     17 :     6.586813253538639   Change is   -0.436615171253482
 Root     18 :     6.624839940108532   Change is   -0.099424626547146
 Root     19 :     6.738372721645413   Change is   -0.192247307864207
 Root     20 :     6.873729481448521   Change is   -0.296580587966617
 Iteration     3 Dimension   160 NMult   120 NNew     40
 CISAX will form    40 AO SS matrices at one time.
 NMat=    40 NSing=    40 JSym2X= 0.
 Root      1 not converged, maximum delta is    0.004404597628915
 Root      2 not converged, maximum delta is    0.006678903019646
 Root      3 not converged, maximum delta is    0.022705612656532
 Root      4 not converged, maximum delta is    0.025647817151087
 Root      5 not converged, maximum delta is    0.006021476825718
 Root      6 not converged, maximum delta is    0.004834679221354
 Root      7 not converged, maximum delta is    0.004979982418593
 Root      8 not converged, maximum delta is    0.003688746186212
 Root      9 not converged, maximum delta is    0.023074413679525
 Root     10 not converged, maximum delta is    0.032118128035899
 Root     11 not converged, maximum delta is    0.033049310463037
 Root     12 not converged, maximum delta is    0.044040024975233
 Root     13 not converged, maximum delta is    0.032221860879373
 Root     14 not converged, maximum delta is    0.031097478136445
 Root     15 not converged, maximum delta is    0.036242627552301
 Root     16 not converged, maximum delta is    0.061515990158601
 Root     17 not converged, maximum delta is    0.194896796693451
 Root     18 not converged, maximum delta is    0.106549929060421
 Root     19 not converged, maximum delta is    0.037119579407276
 Root     20 not converged, maximum delta is    0.106417510274862
 Excitation Energies [eV] at current iteration:
 Root      1 :     2.776480723867307   Change is   -0.007212172052034
 Root      2 :     4.122183682038132   Change is   -0.015981990541967
 Root      3 :     4.525794129383614   Change is   -0.012898937215508
 Root      4 :     4.647882579311678   Change is   -0.013396624272826
 Root      5 :     4.728662293062373   Change is   -0.006412499883898
 Root      6 :     4.980805283288939   Change is   -0.010364977291028
 Root      7 :     5.156906969569810   Change is   -0.005474140738428
 Root      8 :     5.529367056649999   Change is   -0.006233949750344
 Root      9 :     5.779973508826610   Change is   -0.015403204447883
 Root     10 :     5.844969762385262   Change is   -0.014722171239085
 Root     11 :     5.898401413958303   Change is   -0.016032306925301
 Root     12 :     6.019654788081563   Change is   -0.020106304994675
 Root     13 :     6.175750132921256   Change is   -0.007906427114942
 Root     14 :     6.244479653914839   Change is   -0.022636586570309
 Root     15 :     6.427048858214594   Change is   -0.016964740509178
 Root     16 :     6.494060471801643   Change is   -0.029901079106030
 Root     17 :     6.545224090513579   Change is   -0.041589163025060
 Root     18 :     6.612397338423023   Change is   -0.012442601685508
 Root     19 :     6.723012420893326   Change is   -0.015360300752087
 Root     20 :     6.808660900639944   Change is   -0.065068580808578
 Iteration     4 Dimension   200 NMult   160 NNew     40
 CISAX will form    40 AO SS matrices at one time.
 NMat=    40 NSing=    40 JSym2X= 0.
 Root      1 has converged.
 Root      2 not converged, maximum delta is    0.001156859967405
 Root      3 not converged, maximum delta is    0.001417711403254
 Root      4 not converged, maximum delta is    0.001570442239484
 Root      5 has converged.
 Root      6 has converged.
 Root      7 has converged.
 Root      8 has converged.
 Root      9 not converged, maximum delta is    0.003060426521066
 Root     10 not converged, maximum delta is    0.003501171793420
 Root     11 not converged, maximum delta is    0.002183806648308
 Root     12 not converged, maximum delta is    0.003017775801031
 Root     13 not converged, maximum delta is    0.003242572693208
 Root     14 not converged, maximum delta is    0.002470289584139
 Root     15 not converged, maximum delta is    0.004809488822559
 Root     16 not converged, maximum delta is    0.010354733721296
 Root     17 not converged, maximum delta is    0.019676917992438
 Root     18 not converged, maximum delta is    0.011505746733954
 Root     19 not converged, maximum delta is    0.029326077665607
 Root     20 not converged, maximum delta is    0.114715470550665
 Excitation Energies [eV] at current iteration:
 Root      1 :     2.776203626447632   Change is   -0.000277097419675
 Root      2 :     4.121243212529589   Change is   -0.000940469508543
 Root      3 :     4.525059337105038   Change is   -0.000734792278576
 Root      4 :     4.647098280272945   Change is   -0.000784299038733
 Root      5 :     4.728306163701982   Change is   -0.000356129360392
 Root      6 :     4.980245927646513   Change is   -0.000559355642426
 Root      7 :     5.156613143233983   Change is   -0.000293826335827
 Root      8 :     5.529051163723015   Change is   -0.000315892926984
 Root      9 :     5.778602746729937   Change is   -0.001370762096673
 Root     10 :     5.844013091549602   Change is   -0.000956670835661
 Root     11 :     5.897330695529024   Change is   -0.001070718429279
 Root     12 :     6.018399160571867   Change is   -0.001255627509695
 Root     13 :     6.175069077046798   Change is   -0.000681055874458
 Root     14 :     6.243075784948104   Change is   -0.001403868966735
 Root     15 :     6.425493080894322   Change is   -0.001555777320272
 Root     16 :     6.491962870130398   Change is   -0.002097601671246
 Root     17 :     6.539650568551994   Change is   -0.005573521961585
 Root     18 :     6.611576439793581   Change is   -0.000820898629443
 Root     19 :     6.720026232595809   Change is   -0.002986188297516
 Root     20 :     6.795466321135747   Change is   -0.013194579504197
 Iteration     5 Dimension   230 NMult   200 NNew     30
 CISAX will form    30 AO SS matrices at one time.
 NMat=    30 NSing=    30 JSym2X= 0.
 Root      1 has converged.
 Root      2 has converged.
 Root      3 has converged.
 Root      4 has converged.
 Root      5 has converged.
 Root      6 has converged.
 Root      7 has converged.
 Root      8 has converged.
 Root      9 has converged.
 Root     10 has converged.
 Root     11 has converged.
 Root     12 has converged.
 Root     13 has converged.
 Root     14 has converged.
 Root     15 not converged, maximum delta is    0.001010787748912
 Root     16 has converged.
 Root     17 not converged, maximum delta is    0.002819761937274
 Root     18 not converged, maximum delta is    0.001492518539511
 Root     19 not converged, maximum delta is    0.007992459555293
 Root     20 not converged, maximum delta is    0.045196261472335
 Excitation Energies [eV] at current iteration:
 Root      1 :     2.776201438901236   Change is   -0.000002187546397
 Root      2 :     4.121212707099524   Change is   -0.000030505430066
 Root      3 :     4.525033058591439   Change is   -0.000026278513599
 Root      4 :     4.647068444240245   Change is   -0.000029836032699
 Root      5 :     4.728299977841768   Change is   -0.000006185860214
 Root      6 :     4.980230547983846   Change is   -0.000015379662669
 Root      7 :     5.156606401617642   Change is   -0.000006741616340
 Root      8 :     5.529046251029430   Change is   -0.000004912693584
 Root      9 :     5.778537505314893   Change is   -0.000065241415044
 Root     10 :     5.843964110985198   Change is   -0.000048980564404
 Root     11 :     5.897281660054250   Change is   -0.000049035474775
 Root     12 :     6.018340875475427   Change is   -0.000058285096441
 Root     13 :     6.175024862679588   Change is   -0.000044214367210
 Root     14 :     6.243010645722415   Change is   -0.000065139225688
 Root     15 :     6.425398407226868   Change is   -0.000094673667454
 Root     16 :     6.491851238027170   Change is   -0.000111632103228
 Root     17 :     6.539240366686905   Change is   -0.000410201865089
 Root     18 :     6.611518013712749   Change is   -0.000058426080832
 Root     19 :     6.719593391203397   Change is   -0.000432841392412
 Root     20 :     6.791135516992994   Change is   -0.004330804142753
 Iteration     6 Dimension   240 NMult   230 NNew     10
 CISAX will form    10 AO SS matrices at one time.
 NMat=    10 NSing=    10 JSym2X= 0.
 Root      1 has converged.
 Root      2 has converged.
 Root      3 has converged.
 Root      4 has converged.
 Root      5 has converged.
 Root      6 has converged.
 Root      7 has converged.
 Root      8 has converged.
 Root      9 has converged.
 Root     10 has converged.
 Root     11 has converged.
 Root     12 has converged.
 Root     13 has converged.
 Root     14 has converged.
 Root     15 has converged.
 Root     16 has converged.
 Root     17 has converged.
 Root     18 has converged.
 Root     19 has converged.
 Root     20 not converged, maximum delta is    0.004433441097744
 Excitation Energies [eV] at current iteration:
 Root      1 :     2.776201321540190   Change is   -0.000000117361046
 Root      2 :     4.121212563191492   Change is   -0.000000143908032
 Root      3 :     4.525032998546690   Change is   -0.000000060044748
 Root      4 :     4.647068369146192   Change is   -0.000000075094054
 Root      5 :     4.728299811913188   Change is   -0.000000165928580
 Root      6 :     4.980230312130401   Change is   -0.000000235853444
 Root      7 :     5.156606009897149   Change is   -0.000000391720494
 Root      8 :     5.529046164697957   Change is   -0.000000086331474
 Root      9 :     5.778537332984515   Change is   -0.000000172330378
 Root     10 :     5.843963721845908   Change is   -0.000000389139289
 Root     11 :     5.897281300055614   Change is   -0.000000359998636
 Root     12 :     6.018339997189358   Change is   -0.000000878286068
 Root     13 :     6.175024337765324   Change is   -0.000000524914264
 Root     14 :     6.243009933587743   Change is   -0.000000712134673
 Root     15 :     6.425391694523070   Change is   -0.000006712703799
 Root     16 :     6.491849107278443   Change is   -0.000002130748727
 Root     17 :     6.539215464424390   Change is   -0.000024902262515
 Root     18 :     6.611514132619617   Change is   -0.000003881093132
 Root     19 :     6.719560109158779   Change is   -0.000033282044618
 Root     20 :     6.790735663024915   Change is   -0.000399853968079
 Iteration     7 Dimension   242 NMult   240 NNew      2
 CISAX will form     2 AO SS matrices at one time.
 NMat=     2 NSing=     2 JSym2X= 0.
 Root      1 has converged.
 Root      2 has converged.
 Root      3 has converged.
 Root      4 has converged.
 Root      5 has converged.
 Root      6 has converged.
 Root      7 has converged.
 Root      8 has converged.
 Root      9 has converged.
 Root     10 has converged.
 Root     11 has converged.
 Root     12 has converged.
 Root     13 has converged.
 Root     14 has converged.
 Root     15 has converged.
 Root     16 has converged.
 Root     17 has converged.
 Root     18 has converged.
 Root     19 has converged.
 Root     20 has converged.
 Excitation Energies [eV] at current iteration:
 Root      1 :     2.776201295930881   Change is   -0.000000025609308
 Root      2 :     4.121212556092666   Change is   -0.000000007098825
 Root      3 :     4.525032984733512   Change is   -0.000000013813179
 Root      4 :     4.647068362634663   Change is   -0.000000006511529
 Root      5 :     4.728299790289392   Change is   -0.000000021623796
 Root      6 :     4.980230286169329   Change is   -0.000000025961072
 Root      7 :     5.156605952932680   Change is   -0.000000056964468
 Root      8 :     5.529046139602765   Change is   -0.000000025095192
 Root      9 :     5.778537257482965   Change is   -0.000000075501549
 Root     10 :     5.843963701375814   Change is   -0.000000020470094
 Root     11 :     5.897281287852262   Change is   -0.000000012203352
 Root     12 :     6.018339939242590   Change is   -0.000000057946769
 Root     13 :     6.175024299955473   Change is   -0.000000037809851
 Root     14 :     6.243009902816898   Change is   -0.000000030770844
 Root     15 :     6.425391688387794   Change is   -0.000000006135275
 Root     16 :     6.491849056241978   Change is   -0.000000051036466
 Root     17 :     6.539215062160753   Change is   -0.000000402263636
 Root     18 :     6.611514057553192   Change is   -0.000000075066425
 Root     19 :     6.719558727024766   Change is   -0.000001382134013
 Root     20 :     6.790706011432172   Change is   -0.000029651592743
 Convergence achieved on expansion vectors.
 ***********************************************************************
 Excited states from <AA,BB:AA,BB> singles matrix:
 ***********************************************************************
 
 1PDM for each excited state written to RWF  633
 Ground to excited state transition densities written to RWF  633
 Ground to excited state transition electric dipole moments (Au):
       state          X           Y           Z        Dip. S.      Osc.
         1        -1.1319      0.2596     -0.1728      1.3786      0.0938
         2        -1.7805      0.6738      0.1181      3.6380      0.3673
         3         0.7163      0.2667      0.1716      0.6137      0.0680
         4         0.1476     -0.1869     -0.5244      0.3317      0.0378
         5         0.2516     -0.2202     -0.3956      0.2683      0.0311
         6        -0.7802     -0.9092      0.4198      1.6117      0.1966
         7        -0.4685      0.4183      0.0436      0.3963      0.0501
         8        -0.2731     -0.0555      0.3768      0.2197      0.0298
         9         0.6477      1.0078      0.0144      1.4354      0.2032
        10        -0.0748      0.3021     -0.1181      0.1108      0.0159
        11        -0.0939      0.9091      0.3333      0.9463      0.1367
        12         0.2401      1.0514     -0.2891      1.2466      0.1838
        13        -0.0858     -0.2055      0.0859      0.0570      0.0086
        14         0.6620      0.5291     -0.5565      1.0279      0.1572
        15         0.3362      0.3488     -0.1413      0.2547      0.0401
        16        -1.2216     -0.1368      0.3227      1.6150      0.2569
        17        -0.6468     -0.0824     -0.1390      0.4444      0.0712
        18        -0.1480      0.0868     -0.0234      0.0300      0.0049
        19        -0.5361      0.2973     -0.2839      0.4564      0.0751
        20        -0.1540     -0.3545     -0.4519      0.3536      0.0588
 Ground to excited state transition velocity dipole moments (Au):
       state          X           Y           Z        Dip. S.      Osc.
         1         0.1148     -0.0304      0.0298      0.0150      0.0979
         2         0.2629     -0.0978     -0.0176      0.0790      0.3478
         3        -0.1159     -0.0392     -0.0267      0.0157      0.0629
         4        -0.0265      0.0350      0.0922      0.0104      0.0407
         5        -0.0437      0.0382      0.0738      0.0088      0.0338
         6         0.1424      0.1597     -0.0807      0.0523      0.1905
         7         0.0896     -0.0769     -0.0081      0.0140      0.0493
         8         0.0565      0.0111     -0.0773      0.0093      0.0305
         9        -0.1415     -0.2139     -0.0026      0.0658      0.2065
        10         0.0186     -0.0654      0.0215      0.0051      0.0158
        11         0.0212     -0.1998     -0.0771      0.0463      0.1424
        12        -0.0483     -0.2309      0.0604      0.0593      0.1787
        13         0.0224      0.0446     -0.0134      0.0027      0.0079
        14        -0.1464     -0.1194      0.1299      0.0526      0.1528
        15        -0.0768     -0.0810      0.0322      0.0135      0.0381
        16         0.2903      0.0343     -0.0763      0.0913      0.2550
        17         0.1573      0.0182      0.0326      0.0261      0.0725
        18         0.0368     -0.0184      0.0089      0.0018      0.0049
        19         0.1298     -0.0699      0.0692      0.0265      0.0716
        20         0.0340      0.0895      0.1095      0.0212      0.0565
 Ground to excited state transition magnetic dipole moments (Au):
       state          X           Y           Z
         1        -1.0983      0.0081      0.8173
         2         0.6312     -0.6401      1.8392
         3        -0.1744      0.3974     -0.9645
         4        -0.0612     -0.1829      0.5294
         5        -0.1533     -0.4102     -0.0701
         6        -0.1699     -0.4295     -1.0332
         7        -0.0901     -0.1380      0.3123
         8         0.0206      0.5978     -0.2649
         9         0.0407      0.6611      0.4243
        10         0.2941      0.3583      0.6330
        11        -0.2443      0.4065     -0.0157
        12        -0.3327      0.3115      0.5823
        13        -0.1540     -0.0366     -0.1044
        14        -0.6755     -0.2898     -0.4958
        15         0.0775      0.1045      0.1379
        16        -0.2183     -0.6264     -0.0801
        17         0.1065     -0.2845      0.8542
        18        -0.1121     -0.4458      0.4599
        19         0.1931     -0.2269      1.4420
        20         0.2420      0.1529      0.7784
 Ground to excited state transition velocity quadrupole moments (Au):
       state          XX          YY          ZZ          XY          XZ          YZ
         1         0.0422      0.0271     -0.0780     -0.0436      0.0610     -0.0721
         2        -0.1663     -0.2109      0.1022     -0.0003      0.2977      0.4232
         3        -0.7404      0.2554     -0.0593     -0.1625     -0.1346      0.0139
         4         1.1152     -0.2687      0.0076      0.0241      0.0245      0.0130
         5        -0.3219     -0.0823      0.0233      0.2307      0.4259     -0.1739
         6        -0.5672      0.0387      0.1099     -0.4685      0.2332     -0.0987
         7        -0.3802     -0.2801      0.0275      0.3238      0.1329      0.0638
         8         0.1487      0.2089      0.0216     -0.2535     -0.2379      0.1495
         9        -0.3250      0.0801     -0.1379     -0.0233     -0.4344      0.2975
        10         1.5743     -0.6002      0.0595      0.4222     -0.3150      0.2492
        11         0.5339     -0.5935      0.0148      0.4405     -0.7306      0.1966
        12         0.9475     -1.0294      0.0952      0.8850     -0.3111      0.2522
        13        -0.3221      0.3272      0.0499     -0.2627      0.1269      0.0378
        14        -0.1636     -0.5867     -0.0202      1.0188      0.3203     -0.2014
        15         0.5938     -0.2171     -0.0428      0.3565     -0.0670      0.2455
        16        -0.8186      0.0991      0.2129      0.7216      0.3862     -0.3217
        17         0.6128     -0.4306      0.0032     -0.0882     -0.0376      0.1255
        18         0.6103     -0.4812      0.0477     -0.0905      0.0440     -0.1156
        19         0.9839     -0.9414      0.0004      0.4886      0.3198      0.2817
        20         2.0938     -0.4618     -0.0793      0.0221      0.1394      0.2390
 <0|del|b> * <b|rxdel|0> + <0|del|b> * <b|delr+rdel|0>
 Rotatory Strengths (R) in cgs (10**-40 erg-esu-cm/Gauss)
       state          XX          YY          ZZ    R(velocity)    E-M Angle
         1        85.4167   -376.6584   -415.4046   -235.5488      127.48
         2       138.6249    571.8570    205.8409    305.4409       70.06
         3        19.6581     85.1067     24.5012     43.0886       76.73
         4        90.6459     99.1210     -7.4054     60.7872       40.06
         5       -40.8173    -16.0961     -0.6080    -19.1738      109.84
         6        29.5422     14.1227    -80.1618    -12.1656       92.09
         7        29.1978     -4.2238    -24.9946     -0.0069       90.00
         8        85.7732     18.2621     -5.7517     32.7612       63.38
         9      -391.8169    -81.5969    -20.2398   -164.5512      137.30
        10       -35.0310     24.1090     -3.2824     -4.7348       94.42
        11      -424.0666     55.7415     90.3499    -92.6584      146.53
        12       -88.2526    -22.9948     45.0586    -22.0629       96.60
        13        -3.6809     -7.3703     -0.4190     -3.8234      112.06
        14       217.0200   -105.4168    101.3440     70.9824       70.13
        15         3.0377    -47.7096     14.7812     -9.9636      116.93
        16      -123.9535   -141.6752     32.2799    -77.7829      112.96
        17        30.0982     98.8426    -13.0326     38.6361       74.41
        18        17.9073     -5.0852     10.9643      7.9288       72.63
        19       245.9377    182.6947    -25.7566    134.2919       54.08
        20       125.9509    140.5388     37.2046    101.2314       27.34
 1/2[<0|r|b>*<b|rxdel|0> + (<0|rxdel|b>*<b|r|0>)*]
 Rotatory Strengths (R) in cgs (10**-40 erg-esu-cm/Gauss)
       state          XX          YY          ZZ     R(length)
         1      -879.1228     -1.4801     99.8995   -260.2345
         2       794.7515    304.9669   -153.6241    315.3648
         3        88.3386    -74.9609    117.0544     43.4773
         4         6.3888    -24.1711    196.3216     59.5131
         5        27.2721    -63.8735    -19.6256    -18.7424
[...]
    11  C   -0.000001  -0.000006   0.000011   0.000011  -0.000000  -0.000007
    12  H    0.000000  -0.000000   0.000002  -0.000000   0.000000   0.000000
    13  H    0.000001   0.000104   0.000002   0.000070   0.000004   0.000003
    14  H   -0.000000  -0.000001  -0.000000  -0.000000  -0.000000  -0.000000
    15  C   -0.069134  -0.019904  -0.051945  -0.061255   0.010092   0.006399
    16  C    0.425381  -0.052689   0.006423  -0.047988  -0.033050   0.000473
    17  C    0.012962   0.375594   0.425236   0.009432  -0.003132  -0.022068
    18  C   -0.036233  -0.035159  -0.000305   0.501670   0.414556   0.002542
    19  H    0.544856  -0.003376  -0.000082   0.010796  -0.009830   0.000050
    20  C   -0.003376   5.195191  -0.028070   0.361199   0.012874   0.418902
    21  H   -0.000082  -0.028070   0.517194   0.006131   0.000044  -0.006434
    22  C    0.010796   0.361199   0.006131   4.860546  -0.057950  -0.048105
    23  H   -0.009830   0.012874   0.000044  -0.057950   0.536455  -0.000175
    24  H    0.000050   0.418902  -0.006434  -0.048105  -0.000175   0.512304
    25  N    0.000000   0.000004   0.000016  -0.000000  -0.000000  -0.000000
    26  C   -0.000000   0.000000  -0.000015  -0.000000   0.000000   0.000000
    27  H    0.000000  -0.000000   0.000003   0.000000  -0.000000  -0.000000
    28  H   -0.000000   0.000000  -0.000000  -0.000000   0.000000   0.000000
    29  H    0.000000   0.000000  -0.000000   0.000000  -0.000000   0.000000
    30  C   -0.000000   0.000003   0.000069   0.000000  -0.000000  -0.000000
    31  H    0.000000  -0.000000   0.000003   0.000000  -0.000000  -0.000000
    32  H   -0.000007   0.000004  -0.000069  -0.000000  -0.000000  -0.000000
    33  H   -0.000000   0.000002  -0.000040  -0.000000   0.000000   0.000000
    34  O   -0.000114  -0.080033  -0.000071   0.390922   0.007352  -0.007348
    35  C    0.000016  -0.013307  -0.000018  -0.076786  -0.000597   0.002734
    36  H    0.000002   0.002423   0.000024  -0.005181   0.000148   0.000448
    37  H   -0.000000   0.001150   0.000001   0.003402  -0.000132  -0.000019
    38  H   -0.000005   0.003161  -0.000021  -0.005379   0.000175   0.000400
              25         26         27         28         29         30
     1  N    0.001976  -0.000046  -0.000003   0.000009  -0.000006  -0.001984
     2  N   -0.000058   0.000004  -0.000001   0.000000   0.000000   0.000032
     3  C   -0.059369   0.008473  -0.000758   0.000291   0.000954  -0.069955
     4  C   -0.053023   0.007243   0.001022   0.000066  -0.000787   0.014909
     5  C    0.434646  -0.061638   0.005337   0.001816  -0.015387   0.324811
     6  C    0.400705  -0.066483  -0.008801  -0.003105   0.006851   0.002474
     7  C    0.007021  -0.000168   0.000045  -0.000047   0.000008   0.000152
     8  C   -0.053763  -0.005663   0.001348   0.001562   0.000186  -0.000188
     9  C    0.000055   0.000020  -0.000048  -0.000010   0.000000  -0.000003
    10  H   -0.000068   0.000016   0.000001  -0.000001  -0.000001  -0.000002
    11  C    0.004517  -0.000049   0.000222  -0.000062   0.000016   0.000011
    12  H   -0.005575   0.003314  -0.000768  -0.000110  -0.000000  -0.000019
    13  H    0.000005  -0.000000  -0.000000   0.000000   0.000000  -0.000000
    14  H   -0.000170  -0.000031   0.000006  -0.000001  -0.000001   0.000000
    15  C   -0.000009  -0.000001   0.000000  -0.000000   0.000000   0.000012
    16  C    0.000001  -0.000000   0.000000   0.000000  -0.000000  -0.000001
    17  C    0.000065  -0.000002  -0.000004   0.000001  -0.000001   0.000021
    18  C    0.000000   0.000000  -0.000000   0.000000  -0.000000   0.000000
    19  H    0.000000  -0.000000   0.000000  -0.000000   0.000000  -0.000000
    20  C    0.000004   0.000000  -0.000000   0.000000   0.000000   0.000003
    21  H    0.000016  -0.000015   0.000003  -0.000000  -0.000000   0.000069
    22  C   -0.000000  -0.000000   0.000000  -0.000000   0.000000   0.000000
    23  H   -0.000000   0.000000  -0.000000   0.000000  -0.000000  -0.000000
    24  H   -0.000000   0.000000  -0.000000   0.000000   0.000000  -0.000000
    25  N    6.634970   0.291068  -0.031236  -0.037583  -0.016802  -0.047854
    26  C    0.291068   4.780250   0.409098   0.410294   0.407301  -0.006153
    27  H   -0.031236   0.409098   0.534888  -0.035131  -0.021676   0.000200
    28  H   -0.037583   0.410294  -0.035131   0.535818  -0.022748  -0.000326
    29  H   -0.016802   0.407301  -0.021676  -0.022748   0.511869   0.003482
    30  C   -0.047854  -0.006153   0.000200  -0.000326   0.003482   4.828661
    31  H   -0.003536  -0.000495   0.000192  -0.000223  -0.001638   0.414078
    32  H    0.004198   0.000416  -0.000000  -0.000033   0.000228   0.407374
    33  H   -0.001617  -0.000631  -0.000003   0.000025  -0.000321   0.404516
    34  O    0.000000  -0.000000  -0.000000   0.000000  -0.000000  -0.000000
    35  C    0.000000  -0.000000  -0.000000   0.000000  -0.000000   0.000000
    36  H    0.000000  -0.000000  -0.000000   0.000000  -0.000000   0.000000
    37  H    0.000000  -0.000000   0.000000  -0.000000   0.000000  -0.000000
    38  H   -0.000000   0.000000   0.000000  -0.000000   0.000000  -0.000000
              31         32         33         34         35         36
     1  N    0.000058   0.026849  -0.000242  -0.000000   0.000000   0.000000
     2  N   -0.000041  -0.002018   0.000155  -0.000000  -0.000000  -0.000001
     3  C    0.002760  -0.018338   0.000860   0.000000  -0.000000  -0.000000
     4  C    0.000846   0.004541  -0.000916  -0.000001   0.000000  -0.000000
     5  C   -0.044279  -0.031943  -0.035925  -0.000000  -0.000000  -0.000000
     6  C   -0.000953  -0.000973   0.000057  -0.000000   0.000000   0.000000
     7  C    0.000039   0.000074  -0.000009  -0.000007  -0.000008  -0.000000
     8  C   -0.000038  -0.000005   0.000021  -0.000000   0.000000  -0.000000
     9  C   -0.000002  -0.000001   0.000000   0.000003  -0.000003   0.000000
    10  H    0.000002   0.000003  -0.000001  -0.000046  -0.000005  -0.000004
    11  C    0.000000   0.000001  -0.000001   0.000000  -0.000000  -0.000000
    12  H   -0.000004  -0.000001   0.000000   0.000000   0.000000   0.000000
    13  H    0.000000  -0.000000   0.000000  -0.000005  -0.000001  -0.000000
    14  H    0.000000   0.000000  -0.000000   0.000000   0.000000   0.000000
    15  C    0.000007   0.000268  -0.000025  -0.000390   0.000068  -0.000106
    16  C   -0.000000  -0.000024   0.000000   0.003051  -0.000371   0.000001
    17  C   -0.000007  -0.000020   0.000065   0.007334  -0.000605  -0.000389
    18  C   -0.000000   0.000000   0.000000  -0.059196   0.006993   0.000321
    19  H    0.000000  -0.000007  -0.000000  -0.000114   0.000016   0.000002
    20  C   -0.000000   0.000004   0.000002  -0.080033  -0.013307   0.002423
    21  H    0.000003  -0.000069  -0.000040  -0.000071  -0.000018   0.000024
    22  C    0.000000  -0.000000  -0.000000   0.390922  -0.076786  -0.005181
    23  H   -0.000000  -0.000000   0.000000   0.007352  -0.000597   0.000148
    24  H   -0.000000  -0.000000   0.000000  -0.007348   0.002734   0.000448
    25  N   -0.003536   0.004198  -0.001617   0.000000   0.000000   0.000000
    26  C   -0.000495   0.000416  -0.000631  -0.000000  -0.000000  -0.000000
    27  H    0.000192  -0.000000  -0.000003  -0.000000  -0.000000  -0.000000
    28  H   -0.000223  -0.000033   0.000025   0.000000   0.000000   0.000000
    29  H   -0.001638   0.000228  -0.000321  -0.000000  -0.000000  -0.000000
    30  C    0.414078   0.407374   0.404516  -0.000000   0.000000   0.000000
    31  H    0.535600  -0.017670  -0.029892   0.000000  -0.000000  -0.000000
    32  H   -0.017670   0.513269  -0.021955   0.000000  -0.000000   0.000000
    33  H   -0.029892  -0.021955   0.535470  -0.000000   0.000000   0.000000
    34  O    0.000000   0.000000  -0.000000   7.910033   0.269436  -0.033676
    35  C   -0.000000  -0.000000   0.000000   0.269436   4.758289   0.403790
    36  H   -0.000000   0.000000   0.000000  -0.033676   0.403790   0.572991
    37  H   -0.000000  -0.000000   0.000000  -0.021521   0.405327  -0.023764
    38  H    0.000000   0.000000  -0.000000  -0.033841   0.403632  -0.045406
              37         38
     1  N    0.000000   0.000000
     2  N   -0.000000   0.000001
     3  C    0.000000  -0.000000
     4  C   -0.000000   0.000002
     5  C   -0.000000   0.000000
     6  C   -0.000000  -0.000000
     7  C   -0.000000   0.000016
     8  C    0.000000  -0.000000
     9  C   -0.000000   0.000016
    10  H    0.000000   0.000018
    11  C   -0.000000   0.000003
    12  H    0.000000  -0.000000
    13  H   -0.000000   0.000012
    14  H   -0.000000  -0.000000
    15  C   -0.000005   0.000113
    16  C    0.000030  -0.000125
    17  C    0.000047  -0.000930
    18  C   -0.000486   0.000619
    19  H   -0.000000  -0.000005
    20  C    0.001150   0.003161
    21  H    0.000001  -0.000021
    22  C    0.003402  -0.005379
    23  H   -0.000132   0.000175
    24  H   -0.000019   0.000400
    25  N    0.000000  -0.000000
    26  C   -0.000000   0.000000
    27  H    0.000000   0.000000
    28  H   -0.000000  -0.000000
    29  H    0.000000   0.000000
    30  C   -0.000000  -0.000000
    31  H   -0.000000   0.000000
    32  H   -0.000000   0.000000
    33  H    0.000000  -0.000000
    34  O   -0.021521  -0.033841
    35  C    0.405327   0.403632
    36  H   -0.023764  -0.045406
    37  H    0.516990  -0.023574
    38  H   -0.023574   0.572597
 Mulliken charges:
               1
     1  N   -0.189384
     2  N   -0.200747
     3  C   -0.125351
     4  C   -0.058135
     5  C    0.231744
     6  C    0.201426
     7  C   -0.060498
     8  C   -0.086435
     9  C   -0.141508
    10  H    0.127285
    11  C   -0.132439
    12  H    0.128624
    13  H    0.113798
    14  H    0.117202
    15  C   -0.075023
    16  C   -0.075807
    17  C   -0.039653
    18  C   -0.107790
    19  H    0.115200
    20  C   -0.145500
    21  H    0.134704
    22  C    0.159938
    23  H    0.123236
    24  H    0.139681
    25  N   -0.468584
    26  C   -0.176122
    27  H    0.146065
    28  H    0.149497
    29  H    0.148472
    30  C   -0.274318
    31  H    0.145193
    32  H    0.135832
    33  H    0.150406
    34  O   -0.351879
    35  C   -0.158582
    36  H    0.128381
    37  H    0.142554
    38  H    0.128516
 Sum of Mulliken charges =  -0.00000
 Mulliken charges with hydrogens summed into heavy atoms:
               1
     1  N   -0.189384
     2  N   -0.200747
     3  C   -0.125351
     4  C   -0.058135
     5  C    0.231744
     6  C    0.201426
     7  C    0.066787
     8  C    0.042189
     9  C   -0.027710
    11  C   -0.015237
    15  C   -0.075023
    16  C    0.039393
    17  C    0.095050
    18  C    0.015446
    20  C   -0.005820
    22  C    0.159938
    25  N   -0.468584
    26  C    0.267913
    30  C    0.157114
    34  O   -0.351879
    35  C    0.240869
 Electronic spatial extent (au):  <R**2>=           6493.3177
 Charge=              0.0000 electrons
 Dipole moment (field-independent basis, Debye):
    X=             -3.8762    Y=              4.7179    Z=              4.7811  Tot=              7.7551
 Quadrupole moment (field-independent basis, Debye-Ang):
   XX=            -91.7934   YY=           -129.8704   ZZ=           -116.3739
   XY=              3.9006   XZ=             -4.8825   YZ=             -0.4819
 Traceless Quadrupole moment (field-independent basis, Debye-Ang):
   XX=             20.8858   YY=            -17.1912   ZZ=             -3.6946
   XY=              3.9006   XZ=             -4.8825   YZ=             -0.4819
 Octapole moment (field-independent basis, Debye-Ang**2):
  XXX=           -102.1738  YYY=             70.4439  ZZZ=             22.9553  XYY=             -8.1740
  XXY=             30.1241  XXZ=             70.6242  XZZ=             27.2831  YZZ=              1.0550
  YYZ=             16.7010  XYZ=             18.6158
 Hexadecapole moment (field-independent basis, Debye-Ang**3):
 XXXX=          -5236.3339 YYYY=          -2138.3927 ZZZZ=           -763.7326 XXXY=            139.4939
 XXXZ=             -0.6238 YYYX=             25.5973 YYYZ=            -50.3828 ZZZX=             -8.1016
 ZZZY=             32.1905 XXYY=          -1233.6215 XXZZ=           -976.0710 YYZZ=           -479.2633
 XXYZ=             91.8821 YYXZ=            -17.0296 ZZXY=             35.1057
 N-N= 1.606337861000D+03 E-N=-5.302083690735D+03  KE= 8.943093288895D+02
 Leave Link  601 at Thu Feb  6 16:36:51 2025, MaxMem= 25501368320 cpu:               6.9 elap:               0.3
 (Enter /share/Apps/gaussian/g16/l9999.exe)
 Electronic transition elements 
                 1             2             3             4             5 
      1  -0.897113D+03 -0.897064D+03 -0.897049D+03 -0.897044D+03 -0.897041D+03
      2  -0.113194D+01 -0.178046D+01  0.716296D+00  0.147590D+00  0.251594D+00
      3   0.259616D+00  0.673760D+00  0.266745D+00 -0.186910D+00 -0.220200D+00
      4  -0.172848D+00  0.118115D+00  0.171624D+00 -0.524425D+00 -0.395626D+00
      5   0.114762D+00  0.262944D+00 -0.115922D+00 -0.264961D-01 -0.437157D-01
      6  -0.303931D-01 -0.977534D-01 -0.391980D-01  0.349988D-01  0.381654D-01
      7   0.297757D-01 -0.175598D-01 -0.267068D-01  0.922175D-01  0.738411D-01
      8  -0.109826D+01  0.631215D+00 -0.174396D+00 -0.612128D-01 -0.153284D+00
      9   0.806194D-02 -0.640069D+00  0.397390D+00 -0.182870D+00 -0.410189D+00
     10   0.817294D+00  0.183923D+01 -0.964469D+00  0.529375D+00 -0.701484D-01
     11   0.421764D-01 -0.166341D+00 -0.740350D+00  0.111522D+01 -0.321870D+00
     12   0.270953D-01 -0.210895D+00  0.255430D+00 -0.268715D+00 -0.822610D-01
     13  -0.780482D-01  0.102191D+00 -0.592890D-01  0.757516D-02  0.233263D-01
     14  -0.435670D-01 -0.266154D-03 -0.162454D+00  0.240725D-01  0.230653D+00
     15   0.609699D-01  0.297696D+00 -0.134555D+00  0.244666D-01  0.425929D+00
     16  -0.721096D-01  0.423183D+00  0.138832D-01  0.130310D-01 -0.173860D+00
                 6             7             8             9            10 
      1  -0.897032D+03 -0.897026D+03 -0.897012D+03 -0.897003D+03 -0.897000D+03
      2  -0.780238D+00 -0.468464D+00 -0.273146D+00  0.647710D+00 -0.748155D-01
      3  -0.909196D+00  0.418273D+00 -0.555391D-01  0.100782D+01  0.302129D+00
      4   0.419825D+00  0.436391D-01  0.376843D+00  0.143524D-01 -0.118114D+00
      5   0.142356D+00  0.896200D-01  0.565039D-01 -0.141510D+00  0.185939D-01
      6   0.159741D+00 -0.768879D-01  0.110624D-01 -0.213864D+00 -0.653605D-01
      7  -0.806815D-01 -0.814370D-02 -0.772532D-01 -0.257166D-02  0.215409D-01
      8  -0.169927D+00 -0.901142D-01  0.205917D-01  0.407070D-01  0.294129D+00
      9  -0.429539D+00 -0.138045D+00  0.597795D+00  0.661118D+00  0.358292D+00
     10  -0.103319D+01  0.312328D+00 -0.264884D+00  0.424264D+00  0.632999D+00
     11  -0.567214D+00 -0.380187D+00  0.148747D+00 -0.324959D+00  0.157434D+01
     12   0.387406D-01 -0.280087D+00  0.208917D+00  0.800863D-01 -0.600213D+00
     13   0.109866D+00  0.275425D-01  0.215812D-01 -0.137859D+00  0.594635D-01
     14  -0.468531D+00  0.323780D+00 -0.253477D+00 -0.233330D-01  0.422155D+00
     15   0.233220D+00  0.132852D+00 -0.237934D+00 -0.434386D+00 -0.314994D+00
     16  -0.987461D-01  0.638144D-01  0.149542D+00  0.297466D+00  0.249155D+00
                11            12            13            14            15 
      1  -0.896998D+03 -0.896994D+03 -0.896988D+03 -0.896986D+03 -0.896979D+03
      2  -0.938856D-01  0.240090D+00 -0.857516D-01  0.662004D+00  0.336235D+00
      3   0.909068D+00  0.105139D+01 -0.205488D+00  0.529113D+00  0.348834D+00
      4   0.333297D+00 -0.289084D+00  0.859001D-01 -0.556483D+00 -0.141320D+00
      5   0.212227D-01 -0.483433D-01  0.224067D-01 -0.146406D+00 -0.768492D-01
      6  -0.199774D+00 -0.230889D+00  0.446058D-01 -0.119444D+00 -0.810401D-01
      7  -0.771068D-01  0.603624D-01 -0.134305D-01  0.129919D+00  0.322065D-01
      8  -0.244335D+00 -0.332681D+00 -0.153977D+00 -0.675473D+00  0.775218D-01
      9   0.406533D+00  0.311542D+00 -0.365973D-01 -0.289754D+00  0.104466D+00
     10  -0.157000D-01  0.582282D+00 -0.104374D+00 -0.495814D+00  0.137943D+00
     11   0.533882D+00  0.947548D+00 -0.322084D+00 -0.163631D+00  0.593760D+00
     12  -0.593503D+00 -0.102944D+01  0.327233D+00 -0.586729D+00 -0.217124D+00
     13   0.148067D-01  0.952212D-01  0.499054D-01 -0.202458D-01 -0.428097D-01
     14   0.440526D+00  0.884987D+00 -0.262712D+00  0.101881D+01  0.356497D+00
     15  -0.730582D+00 -0.311141D+00  0.126891D+00  0.320319D+00 -0.669986D-01
     16   0.196626D+00  0.252246D+00  0.377757D-01 -0.201385D+00  0.245481D+00
                16            17            18            19            20 
      1  -0.896977D+03 -0.896975D+03 -0.896972D+03 -0.896968D+03 -0.896966D+03
      2  -0.122155D+01 -0.646754D+00 -0.147982D+00 -0.536104D+00 -0.154024D+00
      3  -0.136801D+00 -0.823850D-01  0.867611D-01  0.297283D+00 -0.354487D+00
      4   0.322652D+00 -0.139013D+00 -0.234357D-01 -0.283855D+00 -0.451933D+00
      5   0.290284D+00  0.157259D+00  0.367958D-01  0.129836D+00  0.339580D-01
      6   0.342753D-01  0.182320D-01 -0.184324D-01 -0.698664D-01  0.894758D-01
      7  -0.762732D-01  0.325815D-01  0.887250D-02  0.691827D-01  0.109548D+00
      8  -0.218271D+00  0.106481D+00 -0.112116D+00  0.193067D+00  0.241988D+00
      9  -0.626407D+00 -0.284514D+00 -0.445823D+00 -0.226934D+00  0.152889D+00
     10  -0.800752D-01  0.854183D+00  0.459888D+00  0.144199D+01  0.778421D+00
     11  -0.818632D+00  0.612750D+00  0.610314D+00  0.983852D+00  0.209379D+01
     12   0.991164D-01 -0.430571D+00 -0.481163D+00 -0.941353D+00 -0.461774D+00
     13   0.212932D+00  0.320053D-02  0.477047D-01  0.430355D-03 -0.792620D-01
     14   0.721564D+00 -0.881600D-01 -0.905117D-01  0.488637D+00  0.220539D-01
     15   0.386160D+00 -0.375871D-01  0.439609D-01  0.319755D+00  0.139431D+00
     16  -0.321668D+00  0.125463D+00 -0.115566D+00  0.281664D+00  0.238958D+00
 Unable to Open any file for archive entry.
 1\1\GINC-SOL-E611\SP\RCAM-B3LYP TD-FC\6-311G(d,p)\C17H17N3O1\CRF524\06
 -Feb-2025\0\\#p td(nstates=20, singlets) cam-b3lyp/6-311g(d,p) scrf=(s
 olvent=acetonitrile)\\ome-pai-me_anti-cis_tddft\\0,1\N,0,-0.94993,-2.2
 56219,-0.568491\N,0,0.262942,-2.495743,-0.739118\C,0,-1.530661,-1.0254
 07,-0.248547\C,0,-1.229333,0.365465,-0.533734\C,0,-2.782892,-1.054138,
 0.350913\C,0,-2.328826,1.099004,-0.039534\C,0,-0.220494,1.065153,-1.20
 5977\C,0,-2.427991,2.481649,-0.156051\C,0,-0.316076,2.43945,-1.331897\
 H,0,0.62916,0.548032,-1.627178\C,0,-1.403879,3.145635,-0.805508\H,0,-3
 .282824,3.018897,0.234847\H,0,0.468092,2.979845,-1.848434\H,0,-1.45000
 8,4.222077,-0.916863\C,0,1.307794,-1.582548,-0.418394\C,0,2.389521,-1.
 512784,-1.297959\C,0,1.385505,-0.916435,0.7982\C,0,3.489884,-0.737154,
 -0.998605\H,0,2.346786,-2.07237,-2.224592\C,0,2.504993,-0.161441,1.123
 985\H,0,0.573268,-0.992559,1.509439\C,0,3.556572,-0.053788,0.218007\H,
 0,4.324876,-0.659247,-1.683461\H,0,2.541584,0.338047,2.081546\N,0,-3.2
 39527,0.21727,0.51441\C,0,-4.491376,0.62186,1.12514\H,0,-4.30782,1.388
 057,1.878907\H,0,-5.178765,1.017884,0.375176\H,0,-4.95419,-0.233115,1.
 609344\C,0,-3.552505,-2.248324,0.785993\H,0,-4.574144,-2.222948,0.4016
 27\H,0,-3.054179,-3.139976,0.412851\H,0,-3.606604,-2.316623,1.875633\O
 ,0,4.683239,0.669017,0.431488\C,0,4.809769,1.376738,1.655717\H,0,4.799
 005,0.69582,2.511004\H,0,5.770786,1.882912,1.61073\H,0,4.014658,2.1183
 7,1.769424\\Version=ES64L-G16RevC.01\State=1-A\HF=-897.2151683\RMSD=6.
 378e-09\PG=C01 [X(C17H17N3O1)]\\@
 The archive entry for this job was punched.


 "A LITTLE BIT GOES A LONG WAY"
 R.S. MULLIKEN AS QUOTED BY K. RUEDENBERG
 Job cpu time:       0 days  3 hours 48 minutes 60.0 seconds.
 Elapsed time:       0 days  0 hours  6 minutes 27.3 seconds.
 File lengths (MBytes):  RWF=   2472 Int=      0 D2E=      0 Chk=    284 Scr=      8
 Normal termination of Gaussian 16 at Thu Feb  6 16:36:51 2025.
