 Entering Gaussian System, Link 0=g16
 Initial command:
 /share/Apps/gaussian/g16/l1.exe "/share/ceph/scratch/crf524/12270717/Gau-645788.inp" -scrdir="/share/ceph/scratch/crf524/12270717/"
 Entering Link 1 = /share/Apps/gaussian/g16/l1.exe PID=    645789.
  
 Copyright (c) 1988-2019, Gaussian, Inc.  All Rights Reserved.
  
 This is part of the Gaussian(R) 16 program.  It is based on
 the Gaussian(R) 09 system (copyright 2009, Gaussian, Inc.),
 the Gaussian(R) 03 system (copyright 2003, Gaussian, Inc.),
 the Gaussian(R) 98 system (copyright 1998, Gaussian, Inc.),
 the Gaussian(R) 94 system (copyright 1995, Gaussian, Inc.),
 the Gaussian 92(TM) system (copyright 1992, Gaussian, Inc.),
 the Gaussian 90(TM) system (copyright 1990, Gaussian, Inc.),
 the Gaussian 88(TM) system (copyright 1988, Gaussian, Inc.),
 the Gaussian 86(TM) system (copyright 1986, Carnegie Mellon
 University), and the Gaussian 82(TM) system (copyright 1983,
 Carnegie Mellon University). Gaussian is a federally registered
 trademark of Gaussian, Inc.
  
 This software contains proprietary and confidential information,
 including trade secrets, belonging to Gaussian, Inc.
  
 This software is provided under written license and may be
 used, copied, transmitted, or stored only in accord with that
 written license.
  
 The following legend is applicable only to US Government
 contracts under FAR:
  
                    RESTRICTED RIGHTS LEGEND
  
 Use, reproduction and disclosure by the US Government is
 subject to restrictions as set forth in subparagraphs (a)
 and (c) of the Commercial Computer Software - Restricted
 Rights clause in FAR 52.227-19.
  
 Gaussian, Inc.
 340 Quinnipiac St., Bldg. 40, Wallingford CT 06492
  
  
 ---------------------------------------------------------------
 Warning -- This program may not be used in any manner that
 competes with the business of Gaussian, Inc. or will provide
 assistance to any competitor of Gaussian, Inc.  The licensee
 of this program is prohibited from giving any competitor of
 Gaussian, Inc. access to this program.  By using this program,
 the user acknowledges that Gaussian, Inc. is engaged in the
 business of creating and licensing software in the field of
 computational chemistry and represents and warrants to the
 licensee that it is not a competitor of Gaussian, Inc. and that
 it will not use this program in any manner prohibited above.
 ---------------------------------------------------------------
  

 Cite this work as:
 Gaussian 16, Revision C.01,
 M. J. Frisch, G. W. Trucks, H. B. Schlegel, G. E. Scuseria, 
 M. A. Robb, J. R. Cheeseman, G. Scalmani, V. Barone, 
 G. A. Petersson, H. Nakatsuji, X. Li, M. Caricato, A. V. Marenich, 
 J. Bloino, B. G. Janesko, R. Gomperts, B. Mennucci, H. P. Hratchian, 
 J. V. Ortiz, A. F. Izmaylov, J. L. Sonnenberg, D. Williams-Young, 
 F. Ding, F. Lipparini, F. Egidi, J. Goings, B. Peng, A. Petrone, 
 T. Henderson, D. Ranasinghe, V. G. Zakrzewski, J. Gao, N. Rega, 
 G. Zheng, W. Liang, M. Hada, M. Ehara, K. Toyota, R. Fukuda, 
 J. Hasegawa, M. Ishida, T. Nakajima, Y. Honda, O. Kitao, H. Nakai, 
 T. Vreven, K. Throssell, J. A. Montgomery, Jr., J. E. Peralta, 
 F. Ogliaro, M. J. Bearpark, J. J. Heyd, E. N. Brothers, K. N. Kudin, 
 V. N. Staroverov, T. A. Keith, R. Kobayashi, J. Normand, 
 K. Raghavachari, A. P. Rendell, J. C. Burant, S. S. Iyengar, 
 J. Tomasi, M. Cossi, J. M. Millam, M. Klene, C. Adamo, R. Cammi, 
 J. W. Ochterski, R. L. Martin, K. Morokuma, O. Farkas, 
 J. B. Foresman, and D. J. Fox, Gaussian, Inc., Wallingford CT, 2019.
 
 ******************************************
 Gaussian 16:  ES64L-G16RevC.01  3-Jul-2019
                 6-Feb-2025 
 ******************************************
 %nprocshared=36
 Will use up to   36 processors via shared memory.
 %mem=190GB
 %chk=anti-trans.chk
 ----------------------------------------------------------------------
 #p td(nstates=20, singlets) cam-b3lyp/6-311g(d,p) scrf=(solvent=aceton
 itrile)
 ----------------------------------------------------------------------
 1/38=1,172=1/1;
 2/12=2,17=6,18=5,40=1/2;
 3/5=4,6=6,7=101,11=9,25=1,30=1,70=2201,72=2,74=-40/1,2,3,8;
 4//1;
 5/5=2,38=5,53=2/2;
 8/6=1,10=2,108=20/1;
 9/41=20,42=1,48=1,70=2/14;
 6/7=2,8=2,9=2,10=2/1;
 99/5=1,9=1/99;
 Leave Link    1 at Thu Feb  6 16:31:37 2025, MaxMem= 25501368320 cpu:               3.9 elap:               0.1
 (Enter /share/Apps/gaussian/g16/l101.exe)
 ---------------------------
 ome-pai-me_anti-trans_tddft
 ---------------------------
 Symbolic Z-matrix:
 Charge =  0 Multiplicity = 1
 N                     0.15336  -0.72149   0.00007 
 N                    -0.55751   0.31126   0.00019 
 C                     1.51477  -0.52007   0.00003 
 C                     2.30861   0.68692   0.00004 
 C                     2.39148  -1.59529  -0.00008 
 C                     3.65073   0.25899  -0.00004 
 C                     2.03574   2.0574    0.00008 
 C                     4.7185    1.14941  -0.00008 
 C                     3.09476   2.94931   0.00005 
 H                     1.01237   2.40218   0.00015 
 C                     4.42149   2.50182  -0.00003 
 H                     5.74446   0.80329  -0.00016 
 H                     2.89529   4.01431   0.00008 
 H                     5.22913   3.22379  -0.00006 
 C                    -1.95367   0.07392   0.00013 
 C                    -2.76973   1.19728   0. 
 C                    -2.55117  -1.19265   0.00024 
 C                    -4.15477   1.08644  -0.00007 
 H                    -2.30391   2.17524  -0.00004 
 C                    -3.92225  -1.31445   0.00018 
 H                    -1.92249  -2.07218   0.00038 
 C                    -4.7378   -0.1766    0. 
 H                    -4.75933   1.98202  -0.00016 
 H                    -4.3982   -2.28731   0.00028 
 N                     3.67105  -1.12747  -0.0001 
 C                     4.88828  -1.91585  -0.00005 
 H                     5.48263  -1.69741  -0.8887 
 H                     5.48305  -1.69653   0.8881 
 H                     4.63948  -2.97291   0.00055 
 C                     2.06135  -3.04399  -0.00012 
 H                     2.46594  -3.54452   0.8828 
 H                     0.98064  -3.16204  -0.00066 
 H                     2.46688  -3.54469  -0.88251 
 C                    -6.95099   0.70764  -0.00025 
 H                    -6.81089   1.32267   0.89256 
 H                    -6.81071   1.3225   -0.89316 
 H                    -7.95709   0.29598  -0.00032 
 O                    -6.07219  -0.40775  -0.00005 
 
 ITRead=  0  0  0  0  0  0  0  0  0  0  0  0  0  0  0  0  0  0  0  0
 ITRead=  0  0  0  0  0  0  0  0  0  0  0  0  0  0  0  0  0  0
 MicOpt= -1 -1 -1 -1 -1 -1 -1 -1 -1 -1 -1 -1 -1 -1 -1 -1 -1 -1 -1 -1
 MicOpt= -1 -1 -1 -1 -1 -1 -1 -1 -1 -1 -1 -1 -1 -1 -1 -1 -1 -1
 NAtoms=     38 NQM=       38 NQMF=       0 NMMI=      0 NMMIF=      0
                NMic=       0 NMicF=      0.
                    Isotopes and Nuclear Properties:
 (Nuclear quadrupole moments (NQMom) in fm**2, nuclear magnetic moments (NMagM)
  in nuclear magnetons)

  Atom         1           2           3           4           5           6           7           8           9          10
 IAtWgt=          14          14          12          12          12          12          12          12          12           1
 AtmWgt=  14.0030740  14.0030740  12.0000000  12.0000000  12.0000000  12.0000000  12.0000000  12.0000000  12.0000000   1.0078250
 NucSpn=           2           2           0           0           0           0           0           0           0           1
 AtZEff=  -0.0000000  -0.0000000  -0.0000000  -0.0000000  -0.0000000  -0.0000000  -0.0000000  -0.0000000  -0.0000000  -0.0000000
 NQMom=    2.0440000   2.0440000   0.0000000   0.0000000   0.0000000   0.0000000   0.0000000   0.0000000   0.0000000   0.0000000
 NMagM=    0.4037610   0.4037610   0.0000000   0.0000000   0.0000000   0.0000000   0.0000000   0.0000000   0.0000000   2.7928460
 AtZNuc=   7.0000000   7.0000000   6.0000000   6.0000000   6.0000000   6.0000000   6.0000000   6.0000000   6.0000000   1.0000000

  Atom        11          12          13          14          15          16          17          18          19          20
 IAtWgt=          12           1           1           1          12          12          12          12           1          12
 AtmWgt=  12.0000000   1.0078250   1.0078250   1.0078250  12.0000000  12.0000000  12.0000000  12.0000000   1.0078250  12.0000000
 NucSpn=           0           1           1           1           0           0           0           0           1           0
 AtZEff=  -0.0000000  -0.0000000  -0.0000000  -0.0000000  -0.0000000  -0.0000000  -0.0000000  -0.0000000  -0.0000000  -0.0000000
 NQMom=    0.0000000   0.0000000   0.0000000   0.0000000   0.0000000   0.0000000   0.0000000   0.0000000   0.0000000   0.0000000
 NMagM=    0.0000000   2.7928460   2.7928460   2.7928460   0.0000000   0.0000000   0.0000000   0.0000000   2.7928460   0.0000000
 AtZNuc=   6.0000000   1.0000000   1.0000000   1.0000000   6.0000000   6.0000000   6.0000000   6.0000000   1.0000000   6.0000000

  Atom        21          22          23          24          25          26          27          28          29          30
 IAtWgt=           1          12           1           1          14          12           1           1           1          12
 AtmWgt=   1.0078250  12.0000000   1.0078250   1.0078250  14.0030740  12.0000000   1.0078250   1.0078250   1.0078250  12.0000000
 NucSpn=           1           0           1           1           2           0           1           1           1           0
 AtZEff=  -0.0000000  -0.0000000  -0.0000000  -0.0000000  -0.0000000  -0.0000000  -0.0000000  -0.0000000  -0.0000000  -0.0000000
 NQMom=    0.0000000   0.0000000   0.0000000   0.0000000   2.0440000   0.0000000   0.0000000   0.0000000   0.0000000   0.0000000
 NMagM=    2.7928460   0.0000000   2.7928460   2.7928460   0.4037610   0.0000000   2.7928460   2.7928460   2.7928460   0.0000000
 AtZNuc=   1.0000000   6.0000000   1.0000000   1.0000000   7.0000000   6.0000000   1.0000000   1.0000000   1.0000000   6.0000000

  Atom        31          32          33          34          35          36          37          38
 IAtWgt=           1           1           1          12           1           1           1          16
 AtmWgt=   1.0078250   1.0078250   1.0078250  12.0000000   1.0078250   1.0078250   1.0078250  15.9949146
 NucSpn=           1           1           1           0           1           1           1           0
 AtZEff=  -0.0000000  -0.0000000  -0.0000000  -0.0000000  -0.0000000  -0.0000000  -0.0000000  -0.0000000
 NQMom=    0.0000000   0.0000000   0.0000000   0.0000000   0.0000000   0.0000000   0.0000000   0.0000000
 NMagM=    2.7928460   2.7928460   2.7928460   0.0000000   2.7928460   2.7928460   2.7928460   0.0000000
 AtZNuc=   1.0000000   1.0000000   1.0000000   6.0000000   1.0000000   1.0000000   1.0000000   8.0000000
 Leave Link  101 at Thu Feb  6 16:31:37 2025, MaxMem= 25501368320 cpu:               3.1 elap:               0.1
 (Enter /share/Apps/gaussian/g16/l202.exe)
                          Input orientation:                          
 ---------------------------------------------------------------------
 Center     Atomic      Atomic             Coordinates (Angstroms)
 Number     Number       Type             X           Y           Z
 ---------------------------------------------------------------------
      1          7           0        0.153359   -0.721490    0.000068
      2          7           0       -0.557507    0.311264    0.000189
      3          6           0        1.514774   -0.520074    0.000025
      4          6           0        2.308606    0.686921    0.000036
      5          6           0        2.391484   -1.595290   -0.000076
      6          6           0        3.650726    0.258989   -0.000042
      7          6           0        2.035736    2.057398    0.000082
      8          6           0        4.718499    1.149410   -0.000082
      9          6           0        3.094762    2.949313    0.000049
     10          1           0        1.012373    2.402176    0.000146
     11          6           0        4.421491    2.501815   -0.000032
     12          1           0        5.744456    0.803290   -0.000160
     13          1           0        2.895289    4.014313    0.000084
     14          1           0        5.229134    3.223785   -0.000060
     15          6           0       -1.953665    0.073922    0.000132
     16          6           0       -2.769731    1.197284    0.000004
     17          6           0       -2.551169   -1.192647    0.000238
     18          6           0       -4.154774    1.086441   -0.000068
     19          1           0       -2.303910    2.175244   -0.000039
     20          6           0       -3.922247   -1.314447    0.000175
     21          1           0       -1.922486   -2.072180    0.000382
     22          6           0       -4.737802   -0.176599    0.000003
     23          1           0       -4.759331    1.982018   -0.000158
     24          1           0       -4.398202   -2.287307    0.000281
     25          7           0        3.671049   -1.127466   -0.000096
     26          6           0        4.888278   -1.915847   -0.000049
     27          1           0        5.482629   -1.697405   -0.888698
     28          1           0        5.483050   -1.696533    0.888098
     29          1           0        4.639484   -2.972905    0.000551
     30          6           0        2.061347   -3.043991   -0.000121
     31          1           0        2.465944   -3.544515    0.882804
     32          1           0        0.980643   -3.162039   -0.000659
     33          1           0        2.466881   -3.544691   -0.882507
     34          6           0       -6.950986    0.707639   -0.000247
     35          1           0       -6.810889    1.322670    0.892560
     36          1           0       -6.810714    1.322498   -0.893156
     37          1           0       -7.957092    0.295976   -0.000323
     38          8           0       -6.072193   -0.407748   -0.000054
 ---------------------------------------------------------------------
                    Distance matrix (angstroms):
                    1          2          3          4          5
     1  N    0.000000
     2  N    1.253759   0.000000
     3  C    1.376234   2.232817   0.000000
     4  C    2.574628   2.890627   1.444647   0.000000
     5  C    2.402651   3.511623   1.387339   2.283715   0.000000
     6  C    3.632205   4.208558   2.273594   1.408692   2.241437
     7  C    3.356421   3.126323   2.629594   1.397378   3.669971
     8  C    4.933637   5.342165   3.612621   2.453870   3.598385
     9  C    4.703897   4.505371   3.812218   2.395091   4.598697
    10  H    3.239629   2.614658   2.965123   2.149958   4.228674
    11  C    5.348518   5.439571   4.192948   2.785341   4.572439
    12  H    5.795284   6.321141   4.431873   3.437820   4.122573
    13  H    5.472295   5.063040   4.739883   3.378718   5.632181
    14  H    6.428739   6.478271   5.273798   3.868483   5.592472
    15  C    2.252161   1.416188   3.518935   4.306126   4.654738
    16  C    3.496591   2.383058   4.615875   5.103918   5.868271
    17  C    2.745261   2.497286   4.121195   5.210584   4.959026
    18  C    4.672111   3.679841   5.892764   6.475716   7.074261
    19  H    3.798584   2.554280   4.674087   4.846691   6.021931
    20  C    4.118515   3.736899   5.494745   6.544387   6.319974
    21  H    2.476590   2.746629   3.771444   5.051215   4.340249
    22  C    4.921419   4.208667   6.262003   7.099122   7.269072
    23  H    5.607448   4.521808   6.754618   7.185611   7.995704
    24  H    4.813366   4.637188   6.171418   7.336709   6.824861
    25  N    3.541039   4.466613   2.240189   2.268976   1.362404
    26  C    4.883231   5.883587   3.650851   3.664575   2.517288
    27  H    5.490304   6.427139   4.233180   4.068081   3.217958
    28  H    5.490438   6.427127   4.233195   4.067751   3.218211
    29  H    5.019381   6.147722   3.972429   4.339046   2.636537
    30  C    3.005733   4.256305   2.582421   3.739096   1.485842
    31  H    3.754563   4.978684   3.291089   4.325400   2.141144
    32  H    2.576951   3.798650   2.695417   4.071606   2.108358
    33  H    3.755235   4.979404   3.291455   4.325560   2.141152
    34  C    7.246663   6.405754   8.554319   9.259615   9.622122
    35  H    7.312721   6.397191   8.573738   9.185095   9.695100
    36  H    7.312595   6.397129   8.573599   9.184974   9.694923
    37  H    8.174023   7.399601   9.506954  10.273139  10.519977
    38  O    6.233453   5.561361   7.587798   8.451987   8.546583
                    6          7          8          9         10
     6  C    0.000000
     7  C    2.417120   0.000000
     8  C    1.390320   2.832253   0.000000
     9  C    2.747169   1.384575   2.424082   0.000000
    10  H    3.399141   1.079881   3.912134   2.153068   0.000000
    11  C    2.371571   2.426795   1.384635   1.400166   3.410574
    12  H    2.163324   3.915021   1.082768   3.409735   4.994902
    13  H    3.830554   2.137369   3.395845   1.083519   2.478782
    14  H    3.358778   3.399743   2.136300   2.151948   4.296058
    15  C    5.607446   4.455277   6.758287   5.809861   3.770696
    16  C    6.488657   4.881835   7.488383   6.120611   3.969392
    17  C    6.369517   5.621609   7.637624   7.002312   5.061777
    18  C    7.849236   6.266193   8.873496   7.485056   5.332032
    19  H    6.255376   4.341246   7.096940   5.453883   3.324038
    20  C    7.734702   6.845940   8.985159   8.210850   6.177682
    21  H    6.041113   5.720222   7.381147   7.098462   5.351005
    22  C    8.399830   7.132430   9.548818   8.433290   6.301952
    23  H    8.584747   6.795485   9.514331   7.913434   5.786977
    24  H    8.442089   7.763506   9.742960   9.141482   7.159998
    25  N    1.386604   3.580169   2.506255   4.117309   4.418929
    26  C    2.502288   4.891183   3.069955   5.185218   5.802410
    27  H    2.823660   5.173930   3.078618   5.299412   6.130236
    28  H    2.823167   5.173446   3.077790   5.298720   6.129831
    29  H    3.379761   5.664226   4.123072   6.120362   6.484399
    30  C    3.665488   5.101453   4.964380   6.081746   5.546267
    31  H    4.080413   5.687329   5.280760   6.583652   6.185070
    32  H    4.339675   5.325011   5.706151   6.466693   5.564306
    33  H    4.080222   5.687552   5.280440   6.583709   6.185459
    34  C   10.611201   9.087520  11.677844  10.292821   8.141655
    35  H   10.553366   8.921834  11.565190  10.077920   7.947651
    36  H   10.553219   8.921750  11.565046  10.077837   7.947602
    37  H   11.607877  10.146882  12.704289  11.365900   9.213435
    38  O    9.745753   8.474400  10.902466   9.762322   7.621466
                   11         12         13         14         15
    11  C    0.000000
    12  H    2.152957   0.000000
    13  H    2.148707   4.292834   0.000000
    14  H    1.083295   2.474743   2.464096   0.000000
    15  C    6.821824   7.732596   6.248123   7.843101   0.000000
    16  C    7.308589   8.523298   6.326777   8.251578   1.388491
    17  C    7.890947   8.532360   7.535007   8.946395   1.400431
    18  C    8.692273   9.903279   7.633860   9.624239   2.422824
    19  H    6.733325   8.164463   5.514875   7.605668   2.130311
    20  C    9.175065   9.895957   8.653004  10.214858   2.408918
    21  H    7.820964   8.188426   7.762497   8.899040   2.146328
    22  C    9.542880  10.527959   8.707917  10.531022   2.795385
    23  H    9.195525  10.569718   7.919813  10.065357   3.393021
    24  H   10.036069  10.603080   9.638746  11.093139   3.398700
    25  N    3.706055   2.833167   5.199971   4.621798   5.751586
    26  C    4.442255   2.850745   6.256101   5.150922   7.125403
    27  H    4.421447   2.666745   6.333086   5.007200   7.695849
    28  H    4.420612   2.665793   6.332364   5.006279   7.695955
    29  H    5.479058   3.934541   7.201627   6.224681   7.263110
    30  C    6.027126   5.326055   7.107399   7.022812   5.083474
    31  H    6.415736   5.516491   7.622297   7.363732   5.779718
    32  H    6.627117   6.198205   7.427375   7.669969   4.368250
    33  H    6.415567   5.515974   7.622404   7.363492   5.780540
    34  C   11.513136  12.695802  10.386685  12.437295   5.037342
    35  H   11.329319  12.597753  10.111941  12.221831   5.093960
    36  H   11.329205  12.597592  10.111886  12.221721   5.093901
    37  H   12.573585  13.710937  11.471713  13.507354   6.007532
    38  O   10.889580  11.878544   9.998518  11.870469   4.146598
                   16         17         18         19         20
    16  C    0.000000
    17  C    2.399904   0.000000
    18  C    1.389471   2.786717   0.000000
    19  H    1.083234   3.376955   2.147368   0.000000
    20  C    2.763528   1.376477   2.412122   3.846681   0.000000
    21  H    3.377457   1.081120   3.867815   4.264516   2.138505
    22  C    2.400179   2.411165   1.391112   3.384523   1.399939
    23  H    2.138765   3.867102   1.080531   2.463012   3.401087
    24  H    3.846335   2.147047   3.382519   4.929546   1.083047
    25  N    6.847489   6.222559   8.132951   6.827007   7.595598
    26  C    8.266601   7.474516   9.528406   8.274333   8.831027
    27  H    8.790362   8.098574  10.070700   8.741700   9.454546
    28  H    8.790409   8.098819  10.070821   8.741635   9.454840
    29  H    8.502173   7.407753   9.685931   8.643735   8.720878
    30  C    6.428665   4.970189   7.463285   6.804108   6.228541
    31  H    7.118728   5.610849   8.127676   7.499771   6.823578
    32  H    5.750565   4.043786   6.664990   6.266967   5.239459
    33  H    7.119498   5.611789   8.128493   7.500457   6.824520
    34  C    4.209827   4.792648   2.821753   4.873313   3.641716
    35  H    4.140451   5.026756   2.812034   4.672951   4.011856
    36  H    4.140405   5.026712   2.812000   4.672913   4.011828
    37  H    5.265080   5.607139   3.883614   5.957358   4.344357
    38  O    3.671836   3.607447   2.430863   4.568567   2.333318
                   21         22         23         24         25
    21  H    0.000000
    22  C    3.393999   0.000000
    23  H    4.948152   2.158724   0.000000
    24  H    2.485045   2.137853   4.284571   0.000000
    25  N    5.672752   8.462442   8.985555   8.152180   0.000000
    26  C    6.812558   9.781943  10.405273   9.293906   1.450238
    27  H    7.467707  10.371107  10.919038   9.938264   2.096727
    28  H    7.468006  10.371342  10.919116   9.938630   2.096682
    29  H    6.623500   9.785337  10.624923   9.063653   2.084109
    30  C    4.100651   7.379049   8.472450   6.503718   2.502840
    31  H    4.712192   8.001009   9.139299   7.033912   2.841464
    32  H    3.100960   6.450850   7.707699   5.449507   3.373095
    33  H    4.713207   8.001895   9.140087   7.034891   2.841064
    34  C    5.745712   2.383288   2.535230   3.935277  10.779389
    35  H    6.018095   2.709641   2.332504   4.432737  10.801436
    36  H    6.018058   2.709610   2.332506   4.432735  10.801261
    37  H    6.482641   3.253791   3.615026   4.397619  11.714941
    38  O    4.471063   1.354263   2.726644   2.516940   9.769788
                   26         27         28         29         30
    26  C    0.000000
    27  H    1.091177   0.000000
    28  H    1.091173   1.776796   0.000000
    29  H    1.085942   1.768773   1.768748   0.000000
    30  C    3.043723   3.782596   3.783203   2.579117   0.000000
    31  H    3.049539   3.956062   3.538078   2.414412   1.092602
    32  H    4.101537   4.816808   4.817600   3.663726   1.087132
    33  H    3.048775   3.536558   3.955756   2.413904   1.092595
    34  C   12.126453  12.695210  12.695450  12.160814   9.762012
    35  H   12.171904  12.783752  12.659247  12.262083   9.928806
    36  H   12.171727  12.658835  12.783742  12.261983   9.928605
    37  H   13.034404  13.615758  13.616049  13.013812  10.560516
    38  O   11.063737  11.660481  11.660764  11.014538   8.550102
                   31         32         33         34         35
    31  H    0.000000
    32  H    1.770004   0.000000
    33  H    1.765311   1.770023   0.000000
    34  C   10.370109   8.825256  10.370965   0.000000
    35  H   10.476126   9.034292  10.626339   1.093158   0.000000
    36  H   10.625358   9.033984  10.476803   1.093167   1.785716
    37  H   11.143113   9.583370  11.143975   1.087067   1.779079
    38  O    9.138847   7.571566   9.139744   1.419988   2.082493
                   36         37         38
    36  H    0.000000
    37  H    1.779067   0.000000
    38  O    2.082497   2.011982   0.000000
 Stoichiometry    C17H17N3O
 Framework group  C1[X(C17H17N3O)]
 Deg. of freedom   108
 Full point group                 C1      NOp   1
 Largest Abelian subgroup         C1      NOp   1
 Largest concise Abelian subgroup C1      NOp   1
                         Standard orientation:                         
 ---------------------------------------------------------------------
 Center     Atomic      Atomic             Coordinates (Angstroms)
 Number     Number       Type             X           Y           Z
 ---------------------------------------------------------------------
      1          7           0       -0.153359   -0.721490   -0.000068
      2          7           0        0.557507    0.311264   -0.000189
      3          6           0       -1.514774   -0.520074   -0.000025
      4          6           0       -2.308606    0.686921   -0.000036
      5          6           0       -2.391484   -1.595290    0.000076
      6          6           0       -3.650726    0.258989    0.000042
      7          6           0       -2.035736    2.057398   -0.000082
      8          6           0       -4.718499    1.149410    0.000082
      9          6           0       -3.094762    2.949313   -0.000049
     10          1           0       -1.012373    2.402176   -0.000146
     11          6           0       -4.421491    2.501815    0.000032
     12          1           0       -5.744456    0.803290    0.000160
     13          1           0       -2.895289    4.014313   -0.000084
     14          1           0       -5.229134    3.223785    0.000060
     15          6           0        1.953665    0.073922   -0.000132
     16          6           0        2.769731    1.197284   -0.000004
     17          6           0        2.551169   -1.192647   -0.000238
     18          6           0        4.154774    1.086441    0.000068
     19          1           0        2.303910    2.175244    0.000039
     20          6           0        3.922247   -1.314447   -0.000175
     21          1           0        1.922486   -2.072180   -0.000382
     22          6           0        4.737802   -0.176599   -0.000003
     23          1           0        4.759331    1.982018    0.000158
     24          1           0        4.398202   -2.287307   -0.000281
     25          7           0       -3.671049   -1.127466    0.000096
     26          6           0       -4.888278   -1.915847    0.000049
     27          1           0       -5.482629   -1.697405    0.888698
     28          1           0       -5.483050   -1.696533   -0.888098
     29          1           0       -4.639484   -2.972905   -0.000551
     30          6           0       -2.061347   -3.043991    0.000121
     31          1           0       -2.465944   -3.544515   -0.882804
     32          1           0       -0.980643   -3.162039    0.000659
     33          1           0       -2.466881   -3.544691    0.882507
     34          6           0        6.950986    0.707639    0.000247
     35          1           0        6.810889    1.322670   -0.892560
     36          1           0        6.810714    1.322498    0.893156
     37          1           0        7.957092    0.295976    0.000323
     38          8           0        6.072193   -0.407748    0.000054
 ---------------------------------------------------------------------
 Rotational constants (GHZ):           0.7705408           0.1281401           0.1100972
 Leave Link  202 at Thu Feb  6 16:31:37 2025, MaxMem= 25501368320 cpu:               0.2 elap:               0.0
 (Enter /share/Apps/gaussian/g16/l301.exe)
 Standard basis: 6-311G(d,p) (5D, 7F)
 Ernie: Thresh=  0.10000D-02 Tol=  0.10000D-05 Strict=F.
 There are   501 symmetry adapted cartesian basis functions of A   symmetry.
 There are   480 symmetry adapted basis functions of A   symmetry.
   480 basis functions,   808 primitive gaussians,   501 cartesian basis functions
    74 alpha electrons       74 beta electrons
       nuclear repulsion energy      1516.3752759648 Hartrees.
 IExCor=20419 DFT=T Ex+Corr=CAM-B3LYP ExCW=0 ScaHFX=  1.000000
 ScaDFX=  1.000000  1.000000  1.000000  0.810000 ScalE2=  1.000000  1.000000
 IRadAn=      5 IRanWt=     -1 IRanGd=            0 ICorTp=0 IEmpDi=  4
 HFx  wShort=  0.000000 wLong=  0.330000 cFull=  0.190000 cShort=  0.000000 cLong=  0.460000
 DFx  wShort=  0.000000 wLong=  0.330000 cFull=  0.190000 cShort=  0.000000 cLong=  0.460000
 NAtoms=   38 NActive=   38 NUniq=   38 SFac= 1.00D+00 NAtFMM=   60 NAOKFM=F Big=F
 Integral buffers will be    131072 words long.
 Raffenetti 1 integral format.
 Two-electron integral symmetry is turned on.
 ------------------------------------------------------------------------------
 Polarizable Continuum Model (PCM)
 =================================
 Model                : PCM.
 Atomic radii         : UFF (Universal Force Field).
 Polarization charges : Total charges.
 Charge compensation  : None.
 Solution method      : On-the-fly selection.
 Cavity type          : Scaled VdW (van der Waals Surface) (Alpha=1.100).
 Cavity algorithm     : GePol (No added spheres)
                        Default sphere list used, NSphG=   38.
                        Lebedev-Laikov grids with approx.  5.0 points / Ang**2.
                        Smoothing algorithm: York/Karplus (Gamma=1.0000).
                        Polarization charges: spherical gaussians, with
                                              point-specific exponents (IZeta= 3).
                        Self-potential: point-specific (ISelfS= 7).
                        Self-field    : sphere-specific E.n sum rule (ISelfD= 2).
 Solvent              : Acetonitrile, Eps=  35.688000 Eps(inf)=   1.806874
 ------------------------------------------------------------------------------
 GePol: Number of generator spheres                  =      38
 GePol: Total number of spheres                      =      38
 GePol: Number of exposed spheres                    =      38 (100.00%)
 GePol: Number of points                             =    2891
 GePol: Average weight of points                     =       0.13
 GePol: Minimum weight of points                     =   0.11D-11
 GePol: Maximum weight of points                     =    0.20577
 GePol: Number of points with low weight             =     179
 GePol: Fraction of low-weight points (<1% of avg)   =       6.19%
 GePol: Cavity surface area                          =    369.693 Ang**2
 GePol: Cavity volume                                =    397.988 Ang**3
 Leave Link  301 at Thu Feb  6 16:31:37 2025, MaxMem= 25501368320 cpu:               3.3 elap:               0.1
 (Enter /share/Apps/gaussian/g16/l302.exe)
 NPDir=0 NMtPBC=     1 NCelOv=     1 NCel=       1 NClECP=     1 NCelD=      1
         NCelK=      1 NCelE2=     1 NClLst=     1 CellRange=     0.0.
 One-electron integrals computed using PRISM.
 One-electron integral symmetry used in STVInt
 NBasis=   480 RedAO= T EigKep=  1.26D-04  NBF=   480
 NBsUse=   480 1.00D-06 EigRej= -1.00D+00 NBFU=   480
 Precomputing XC quadrature grid using
 IXCGrd= 4 IRadAn=           5 IRanWt=          -1 IRanGd=           0 AccXCQ= 0.00D+00.
 Generated NRdTot=       0 NPtTot=           0 NUsed=           0 NTot=          32
 NSgBfM=   492   492   492   492   492 MxSgAt=    38 MxSgA2=    38.
 Leave Link  302 at Thu Feb  6 16:31:37 2025, MaxMem= 25501368320 cpu:              13.5 elap:               0.4
 (Enter /share/Apps/gaussian/g16/l303.exe)
 DipDrv:  MaxL=1.
 Leave Link  303 at Thu Feb  6 16:31:37 2025, MaxMem= 25501368320 cpu:               1.5 elap:               0.1
 (Enter /share/Apps/gaussian/g16/l308.exe)
 Leave Link  308 at Thu Feb  6 16:31:38 2025, MaxMem= 25501368320 cpu:               2.1 elap:               0.1
 (Enter /share/Apps/gaussian/g16/l401.exe)
 ExpMin= 1.03D-01 ExpMax= 8.59D+03 ExpMxC= 1.30D+03 IAcc=3 IRadAn=         5 AccDes= 0.00D+00
 Harris functional with IExCor=20419 and IRadAn=       5 diagonalized for initial guess.
 HarFok:  IExCor=20419 AccDes= 0.00D+00 IRadAn=         5 IDoV= 1 UseB2=F ITyADJ=14
 ICtDFT=  3500011 ScaDFX=  1.000000  1.000000  1.000000  1.000000
 FoFCou: FMM=F IPFlag=           0 FMFlag=      100000 FMFlg1=           0
         NFxFlg=           0 DoJE=T BraDBF=F KetDBF=T FulRan=T
         wScrn=  0.000000 ICntrl=       500 IOpCl=  0 I1Cent=   200000004 NGrid=           0
         NMat0=    1 NMatS0=      1 NMatT0=    0 NMatD0=    1 NMtDS0=    0 NMtDT0=    0
 Petite list used in FoFCou.
 Harris En= -862.029989666737    
 JPrj=0 DoOrth=F DoCkMO=F.
 Leave Link  401 at Thu Feb  6 16:31:38 2025, MaxMem= 25501368320 cpu:              24.4 elap:               0.7
 (Enter /share/Apps/gaussian/g16/l502.exe)
 Integral symmetry usage will be decided dynamically.
 Closed shell SCF:
 Using DIIS extrapolation, IDIIS=  1040.
 NGot= 25501368320 LenX= 25500842405 LenY= 25500590903
 Requested convergence on RMS density matrix=1.00D-08 within 128 cycles.
 Requested convergence on MAX density matrix=1.00D-06.
 Requested convergence on             energy=1.00D-06.
 No special actions if energy rises.
 Fock matrices will be formed incrementally for  20 cycles.

 Cycle   1  Pass 1  IDiag  1:
 FoFJK:  IHMeth= 1 ICntrl=       0 DoSepK=T KAlg= 0 I1Cent=           0 FoldK=F
 IRaf=         1 NMat=       1 IRICut=       1 DoRegI=T DoRafI=F ISym2E= 0 IDoP0=0 IntGTp=1.
 FoFCou: FMM=F IPFlag=           0 FMFlag=      100000 FMFlg1=           0
         NFxFlg=           0 DoJE=T BraDBF=F KetDBF=F FulRan=T
         wScrn=  0.000000 ICntrl=       500 IOpCl=  0 I1Cent=           0 NGrid=           0
         NMat0=    1 NMatS0=      1 NMatT0=    0 NMatD0=    1 NMtDS0=    0 NMtDT0=    0
 Symmetry not used in FoFCou.
 Inv3:  Mode=1 IEnd=    25073643.
 Iteration    1 A*A^-1 deviation from unit magnitude is 3.00D-15 for    118.
 Iteration    1 A*A^-1 deviation from orthogonality  is 1.92D-15 for   1682    405.
 Iteration    1 A^-1*A deviation from unit magnitude is 3.66D-15 for    118.
 Iteration    1 A^-1*A deviation from orthogonality  is 2.83D-15 for   2134    367.
 E= -896.938405758242    
 DIIS: error= 5.29D-02 at cycle   1 NSaved=   1.
 NSaved= 1 IEnMin= 1 EnMin= -896.938405758242     IErMin= 1 ErrMin= 5.29D-02
 ErrMax= 5.29D-02  0.00D+00 EMaxC= 1.00D-01 BMatC= 1.59D+00 BMatP= 1.59D+00
 IDIUse=3 WtCom= 4.71D-01 WtEn= 5.29D-01
 Coeff-Com:  0.100D+01
 Coeff-En:   0.100D+01
 Coeff:      0.100D+01
 Gap=     0.239 Goal=   None    Shift=    0.000
 GapD=    0.239 DampG=1.000 DampE=0.500 DampFc=0.5000 IDamp=-1.
 Damping current iteration by 5.00D-01
 RMSDP=3.16D-03 MaxDP=2.12D-01              OVMax= 1.43D-01

 Cycle   2  Pass 1  IDiag  1:
 RMSU=  1.37D-03    CP:  9.24D-01
 E= -897.075087945429     Delta-E=       -0.136682187187 Rises=F Damp=T
 DIIS: error= 2.61D-02 at cycle   2 NSaved=   2.
 NSaved= 2 IEnMin= 2 EnMin= -897.075087945429     IErMin= 2 ErrMin= 2.61D-02
 ErrMax= 2.61D-02  0.00D+00 EMaxC= 1.00D-01 BMatC= 3.19D-01 BMatP= 1.59D+00
 IDIUse=3 WtCom= 7.39D-01 WtEn= 2.61D-01
 Coeff-Com: -0.471D+00 0.147D+01
 Coeff-En:   0.000D+00 0.100D+01
 Coeff:     -0.348D+00 0.135D+01
 Gap=     0.279 Goal=   None    Shift=    0.000
 RMSDP=9.17D-04 MaxDP=4.77D-02 DE=-1.37D-01 OVMax= 1.46D-01

 Cycle   3  Pass 1  IDiag  1:
 RMSU=  7.84D-04    CP:  9.51D-01  7.19D-01
 E= -897.158079004041     Delta-E=       -0.082991058611 Rises=F Damp=F
 DIIS: error= 1.93D-02 at cycle   3 NSaved=   3.
 NSaved= 3 IEnMin= 3 EnMin= -897.158079004041     IErMin= 3 ErrMin= 1.93D-02
 ErrMax= 1.93D-02  0.00D+00 EMaxC= 1.00D-01 BMatC= 1.05D-01 BMatP= 3.19D-01
 IDIUse=3 WtCom= 8.07D-01 WtEn= 1.93D-01
 Coeff-Com: -0.328D+00 0.711D+00 0.617D+00
 Coeff-En:   0.000D+00 0.000D+00 0.100D+01
 Coeff:     -0.265D+00 0.574D+00 0.691D+00
 Gap=     0.228 Goal=   None    Shift=    0.000
 RMSDP=1.08D-03 MaxDP=7.25D-02 DE=-8.30D-02 OVMax= 5.75D-02

 Cycle   4  Pass 1  IDiag  1:
 RMSU=  1.94D-04    CP:  9.00D-01  1.36D+00  5.97D-01
 E= -897.233916589510     Delta-E=       -0.075837585469 Rises=F Damp=F
 DIIS: error= 7.21D-03 at cycle   4 NSaved=   4.
 NSaved= 4 IEnMin= 4 EnMin= -897.233916589510     IErMin= 4 ErrMin= 7.21D-03
 ErrMax= 7.21D-03  0.00D+00 EMaxC= 1.00D-01 BMatC= 1.05D-02 BMatP= 1.05D-01
 IDIUse=3 WtCom= 9.28D-01 WtEn= 7.21D-02
 Coeff-Com: -0.142D+00 0.308D+00 0.391D+00 0.443D+00
 Coeff-En:   0.000D+00 0.000D+00 0.106D-01 0.989D+00
 Coeff:     -0.131D+00 0.286D+00 0.364D+00 0.482D+00
 Gap=     0.216 Goal=   None    Shift=    0.000
 RMSDP=1.61D-04 MaxDP=1.22D-02 DE=-7.58D-02 OVMax= 1.51D-02

 Cycle   5  Pass 1  IDiag  1:
 RMSU=  1.17D-04    CP:  9.02D-01  1.31D+00  6.80D-01  6.77D-01
 E= -897.241410642728     Delta-E=       -0.007494053218 Rises=F Damp=F
 DIIS: error= 9.91D-04 at cycle   5 NSaved=   5.
 NSaved= 5 IEnMin= 5 EnMin= -897.241410642728     IErMin= 5 ErrMin= 9.91D-04
 ErrMax= 9.91D-04  0.00D+00 EMaxC= 1.00D-01 BMatC= 1.02D-04 BMatP= 1.05D-02
 IDIUse=3 WtCom= 9.90D-01 WtEn= 9.91D-03
 Coeff-Com:  0.845D-02-0.186D-01 0.370D-02 0.123D+00 0.883D+00
 Coeff-En:   0.000D+00 0.000D+00 0.000D+00 0.000D+00 0.100D+01
 Coeff:      0.837D-02-0.184D-01 0.366D-02 0.122D+00 0.885D+00
 Gap=     0.218 Goal=   None    Shift=    0.000
 RMSDP=3.02D-05 MaxDP=1.19D-03 DE=-7.49D-03 OVMax= 7.36D-03

 Cycle   6  Pass 1  IDiag  1:
 RMSU=  2.06D-05    CP:  9.02D-01  1.32D+00  6.90D-01  7.70D-01  9.69D-01
 E= -897.241531610009     Delta-E=       -0.000120967282 Rises=F Damp=F
 DIIS: error= 1.85D-04 at cycle   6 NSaved=   6.
 NSaved= 6 IEnMin= 6 EnMin= -897.241531610009     IErMin= 6 ErrMin= 1.85D-04
 ErrMax= 1.85D-04  0.00D+00 EMaxC= 1.00D-01 BMatC= 1.91D-05 BMatP= 1.02D-04
 IDIUse=3 WtCom= 9.98D-01 WtEn= 1.85D-03
 Coeff-Com:  0.160D-01-0.351D-01-0.336D-01 0.938D-02 0.419D+00 0.624D+00
 Coeff-En:   0.000D+00 0.000D+00 0.000D+00 0.000D+00 0.000D+00 0.100D+01
 Coeff:      0.160D-01-0.350D-01-0.335D-01 0.937D-02 0.419D+00 0.625D+00
 Gap=     0.218 Goal=   None    Shift=    0.000
 RMSDP=2.95D-05 MaxDP=2.31D-03 DE=-1.21D-04 OVMax= 1.42D-03

 Cycle   7  Pass 1  IDiag  1:
 RMSU=  7.63D-06    CP:  9.00D-01  1.33D+00  6.89D-01  7.75D-01  1.11D+00
                    CP:  9.60D-01
 E= -897.241552375838     Delta-E=       -0.000020765828 Rises=F Damp=F
 DIIS: error= 1.17D-04 at cycle   7 NSaved=   7.
 NSaved= 7 IEnMin= 7 EnMin= -897.241552375838     IErMin= 7 ErrMin= 1.17D-04
 ErrMax= 1.17D-04  0.00D+00 EMaxC= 1.00D-01 BMatC= 1.32D-06 BMatP= 1.91D-05
 IDIUse=3 WtCom= 9.99D-01 WtEn= 1.17D-03
 Coeff-Com:  0.353D-02-0.771D-02-0.108D-01-0.149D-01 0.182D-01 0.193D+00
 Coeff-Com:  0.818D+00
 Coeff-En:   0.000D+00 0.000D+00 0.000D+00 0.000D+00 0.000D+00 0.000D+00
 Coeff-En:   0.100D+01
 Coeff:      0.352D-02-0.770D-02-0.108D-01-0.149D-01 0.182D-01 0.193D+00
 Coeff:      0.818D+00
 Gap=     0.219 Goal=   None    Shift=    0.000
 RMSDP=7.88D-06 MaxDP=5.48D-04 DE=-2.08D-05 OVMax= 1.09D-03

 Cycle   8  Pass 1  IDiag  1:
 RMSU=  3.23D-06    CP:  9.00D-01  1.33D+00  6.89D-01  7.80D-01  1.15D+00
                    CP:  1.12D+00  9.33D-01
 E= -897.241554819165     Delta-E=       -0.000002443328 Rises=F Damp=F
 DIIS: error= 4.34D-05 at cycle   8 NSaved=   8.
 NSaved= 8 IEnMin= 8 EnMin= -897.241554819165     IErMin= 8 ErrMin= 4.34D-05
 ErrMax= 4.34D-05  0.00D+00 EMaxC= 1.00D-01 BMatC= 4.91D-07 BMatP= 1.32D-06
 IDIUse=1 WtCom= 1.00D+00 WtEn= 0.00D+00
 Coeff-Com: -0.778D-03 0.172D-02-0.205D-03-0.907D-02-0.515D-01-0.126D-01
 Coeff-Com:  0.424D+00 0.649D+00
 Coeff:     -0.778D-03 0.172D-02-0.205D-03-0.907D-02-0.515D-01-0.126D-01
 Coeff:      0.424D+00 0.649D+00
 Gap=     0.219 Goal=   None    Shift=    0.000
 RMSDP=2.94D-06 MaxDP=1.55D-04 DE=-2.44D-06 OVMax= 4.22D-04

 Cycle   9  Pass 1  IDiag  1:
 RMSU=  1.09D-06    CP:  9.00D-01  1.33D+00  6.89D-01  7.82D-01  1.16D+00
                    CP:  1.14D+00  1.09D+00  7.84D-01
 E= -897.241555417338     Delta-E=       -0.000000598173 Rises=F Damp=F
 DIIS: error= 9.57D-06 at cycle   9 NSaved=   9.
 NSaved= 9 IEnMin= 9 EnMin= -897.241555417338     IErMin= 9 ErrMin= 9.57D-06
 ErrMax= 9.57D-06  0.00D+00 EMaxC= 1.00D-01 BMatC= 5.14D-08 BMatP= 4.91D-07
 IDIUse=1 WtCom= 1.00D+00 WtEn= 0.00D+00
 Coeff-Com: -0.814D-03 0.179D-02 0.118D-02-0.270D-02-0.250D-01-0.396D-01
 Coeff-Com:  0.815D-01 0.284D+00 0.700D+00
 Coeff:     -0.814D-03 0.179D-02 0.118D-02-0.270D-02-0.250D-01-0.396D-01
 Coeff:      0.815D-01 0.284D+00 0.700D+00
 Gap=     0.219 Goal=   None    Shift=    0.000
 RMSDP=1.44D-06 MaxDP=1.13D-04 DE=-5.98D-07 OVMax= 1.30D-04

 Cycle  10  Pass 1  IDiag  1:
 RMSU=  4.38D-07    CP:  9.00D-01  1.33D+00  6.89D-01  7.82D-01  1.17D+00
                    CP:  1.16D+00  1.11D+00  9.36D-01  9.28D-01
 E= -897.241555482177     Delta-E=       -0.000000064839 Rises=F Damp=F
 DIIS: error= 5.09D-06 at cycle  10 NSaved=  10.
 NSaved=10 IEnMin=10 EnMin= -897.241555482177     IErMin=10 ErrMin= 5.09D-06
 ErrMax= 5.09D-06  0.00D+00 EMaxC= 1.00D-01 BMatC= 6.78D-09 BMatP= 5.14D-08
 IDIUse=1 WtCom= 1.00D+00 WtEn= 0.00D+00
 Coeff-Com: -0.280D-03 0.606D-03 0.535D-03-0.183D-03-0.365D-02-0.175D-01
 Coeff-Com: -0.143D-01 0.405D-01 0.299D+00 0.695D+00
 Coeff:     -0.280D-03 0.606D-03 0.535D-03-0.183D-03-0.365D-02-0.175D-01
 Coeff:     -0.143D-01 0.405D-01 0.299D+00 0.695D+00
 Gap=     0.219 Goal=   None    Shift=    0.000
 RMSDP=3.41D-07 MaxDP=1.62D-05 DE=-6.48D-08 OVMax= 4.73D-05

 Cycle  11  Pass 1  IDiag  1:
 RMSU=  1.59D-07    CP:  9.00D-01  1.34D+00  6.89D-01  7.81D-01  1.17D+00
                    CP:  1.16D+00  1.13D+00  9.45D-01  1.04D+00  8.79D-01
 E= -897.241555490649     Delta-E=       -0.000000008472 Rises=F Damp=F
 DIIS: error= 1.64D-06 at cycle  11 NSaved=  11.
 NSaved=11 IEnMin=11 EnMin= -897.241555490649     IErMin=11 ErrMin= 1.64D-06
 ErrMax= 1.64D-06  0.00D+00 EMaxC= 1.00D-01 BMatC= 1.03D-09 BMatP= 6.78D-09
 IDIUse=1 WtCom= 1.00D+00 WtEn= 0.00D+00
 Coeff-Com: -0.133D-04 0.240D-04 0.594D-04 0.249D-03 0.194D-02-0.252D-02
 Coeff-Com: -0.154D-01-0.269D-01 0.115D-01 0.291D+00 0.740D+00
 Coeff:     -0.133D-04 0.240D-04 0.594D-04 0.249D-03 0.194D-02-0.252D-02
 Coeff:     -0.154D-01-0.269D-01 0.115D-01 0.291D+00 0.740D+00
 Gap=     0.219 Goal=   None    Shift=    0.000
 RMSDP=1.85D-07 MaxDP=1.51D-05 DE=-8.47D-09 OVMax= 1.70D-05

 Cycle  12  Pass 1  IDiag  1:
 RMSU=  5.50D-08    CP:  9.00D-01  1.34D+00  6.88D-01  7.81D-01  1.17D+00
                    CP:  1.16D+00  1.13D+00  9.60D-01  1.07D+00  1.03D+00
                    CP:  9.64D-01
 E= -897.241555492115     Delta-E=       -0.000000001465 Rises=F Damp=F
 DIIS: error= 5.48D-07 at cycle  12 NSaved=  12.
 NSaved=12 IEnMin=12 EnMin= -897.241555492115     IErMin=12 ErrMin= 5.48D-07
 ErrMax= 5.48D-07  0.00D+00 EMaxC= 1.00D-01 BMatC= 1.18D-10 BMatP= 1.03D-09
 IDIUse=1 WtCom= 1.00D+00 WtEn= 0.00D+00
 Coeff-Com:  0.328D-04-0.723D-04-0.546D-04 0.123D-03 0.135D-02 0.116D-02
 Coeff-Com: -0.332D-02-0.168D-01-0.331D-01 0.312D-01 0.291D+00 0.729D+00
 Coeff:      0.328D-04-0.723D-04-0.546D-04 0.123D-03 0.135D-02 0.116D-02
 Coeff:     -0.332D-02-0.168D-01-0.331D-01 0.312D-01 0.291D+00 0.729D+00
 Gap=     0.219 Goal=   None    Shift=    0.000
 RMSDP=3.54D-08 MaxDP=1.37D-06 DE=-1.47D-09 OVMax= 6.66D-06

 Cycle  13  Pass 1  IDiag  1:
 RMSU=  2.08D-08    CP:  9.00D-01  1.34D+00  6.88D-01  7.81D-01  1.17D+00
                    CP:  1.16D+00  1.13D+00  9.59D-01  1.08D+00  1.06D+00
                    CP:  1.09D+00  1.11D+00
 E= -897.241555492310     Delta-E=       -0.000000000195 Rises=F Damp=F
 DIIS: error= 2.89D-07 at cycle  13 NSaved=  13.
 NSaved=13 IEnMin=13 EnMin= -897.241555492310     IErMin=13 ErrMin= 2.89D-07
 ErrMax= 2.89D-07  0.00D+00 EMaxC= 1.00D-01 BMatC= 1.69D-11 BMatP= 1.18D-10
 IDIUse=1 WtCom= 1.00D+00 WtEn= 0.00D+00
 Coeff-Com:  0.116D-04-0.246D-04-0.266D-04-0.339D-05 0.454D-04 0.762D-03
 Coeff-Com:  0.225D-02-0.100D-02-0.126D-01-0.458D-01-0.402D-01 0.244D+00
 Coeff-Com:  0.853D+00
 Coeff:      0.116D-04-0.246D-04-0.266D-04-0.339D-05 0.454D-04 0.762D-03
 Coeff:      0.225D-02-0.100D-02-0.126D-01-0.458D-01-0.402D-01 0.244D+00
 Coeff:      0.853D+00
 Gap=     0.219 Goal=   None    Shift=    0.000
 RMSDP=1.83D-08 MaxDP=7.79D-07 DE=-1.95D-10 OVMax= 4.29D-06

 Cycle  14  Pass 1  IDiag  1:
 RMSU=  9.03D-09    CP:  9.00D-01  1.34D+00  6.88D-01  7.81D-01  1.17D+00
                    CP:  1.16D+00  1.13D+00  9.59D-01  1.08D+00  1.07D+00
                    CP:  1.15D+00  1.29D+00  1.14D+00
 E= -897.241555492356     Delta-E=       -0.000000000046 Rises=F Damp=F
 DIIS: error= 9.49D-08 at cycle  14 NSaved=  14.
 NSaved=14 IEnMin=14 EnMin= -897.241555492356     IErMin=14 ErrMin= 9.49D-08
 ErrMax= 9.49D-08  0.00D+00 EMaxC= 1.00D-01 BMatC= 2.97D-12 BMatP= 1.69D-11
 IDIUse=1 WtCom= 1.00D+00 WtEn= 0.00D+00
 Coeff-Com: -0.251D-06 0.865D-06-0.227D-05-0.188D-04-0.165D-03 0.115D-03
 Coeff-Com:  0.144D-02 0.173D-02 0.948D-04-0.228D-01-0.551D-01-0.160D-01
 Coeff-Com:  0.338D+00 0.753D+00
 Coeff:     -0.251D-06 0.865D-06-0.227D-05-0.188D-04-0.165D-03 0.115D-03
 Coeff:      0.144D-02 0.173D-02 0.948D-04-0.228D-01-0.551D-01-0.160D-01
 Coeff:      0.338D+00 0.753D+00
 Gap=     0.219 Goal=   None    Shift=    0.000
 RMSDP=7.26D-09 MaxDP=3.49D-07 DE=-4.57D-11 OVMax= 1.53D-06

 Error on total polarization charges =  0.01548
 SCF Done:  E(RCAM-B3LYP) =  -897.241555492     A.U. after   14 cycles
            NFock= 14  Conv=0.73D-08     -V/T= 2.0032
 KE= 8.943396834459D+02 PE=-5.122841211174D+03 EE= 1.814884696271D+03
 Leave Link  502 at Thu Feb  6 16:32:18 2025, MaxMem= 25501368320 cpu:            1370.6 elap:              39.2
 (Enter /share/Apps/gaussian/g16/l801.exe)
 DoSCS=F DFT=T ScalE2(SS,OS)=  1.000000  1.000000
 ExpMin= 1.03D-01 ExpMax= 8.59D+03 ExpMxC= 1.30D+03 IAcc=3 IRadAn=         5 AccDes= 0.00D+00
 HarFok:  IExCor=  205 AccDes= 0.00D+00 IRadAn=         5 IDoV=-2 UseB2=F ITyADJ=14
 ICtDFT= 12500011 ScaDFX=  1.000000  1.000000  1.000000  1.000000
 GSVD:  LWork=        -609 too small for GESVD, short by        2520 words or        2520 for optimal perf.
 Largest valence mixing into a core orbital is  5.12D-05
 Largest core mixing into a valence orbital is  1.67D-05
 Range of M.O.s used for correlation:    22   480
 NBasis=   480 NAE=    74 NBE=    74 NFC=    21 NFV=     0
 NROrb=    459 NOA=    53 NOB=    53 NVA=   406 NVB=   406

 **** Warning!!: The largest alpha MO coefficient is  0.20485845D+02

 Leave Link  801 at Thu Feb  6 16:32:18 2025, MaxMem= 25501368320 cpu:               8.2 elap:               0.3
 (Enter /share/Apps/gaussian/g16/l914.exe)
 RHF ground state
 Two-electron integrals replicated using symmetry.
 MDV= 25501368320 DFT=T DoStab=F Mixed=T DoRPA=T DoScal=F NonHer=T
 NEqPCM:  Using non-equilibrium solvation (IEInf=1, Eps=  35.6880, EpsInf=   1.8069)
 Inv3:  Mode=1 IEnd=    25073643.
 Iteration    1 A*A^-1 deviation from unit magnitude is 3.55D-15 for    218.
 Iteration    1 A*A^-1 deviation from orthogonality  is 1.81D-15 for   2650   1113.
 Iteration    1 A^-1*A deviation from unit magnitude is 3.11D-15 for     26.
 Iteration    1 A^-1*A deviation from orthogonality  is 1.88D-15 for   2553   1127.
 Making orbital integer symmetry assigments:
 Orbital symmetries:
       Occupied  (A) (A) (A) (A) (A) (A) (A) (A) (A) (A) (A) (A)
                 (A) (A) (A) (A) (A) (A) (A) (A) (A) (A) (A) (A)
                 (A) (A) (A) (A) (A) (A) (A) (A) (A) (A) (A) (A)
                 (A) (A) (A) (A) (A) (A) (A) (A) (A) (A) (A) (A)
                 (A) (A) (A) (A) (A) (A) (A) (A) (A) (A) (A) (A)
                 (A) (A) (A) (A) (A) (A) (A) (A) (A) (A) (A) (A)
                 (A) (A)
       Virtual   (A) (A) (A) (A) (A) (A) (A) (A) (A) (A) (A) (A)
                 (A) (A) (A) (A) (A) (A) (A) (A) (A) (A) (A) (A)
                 (A) (A) (A) (A) (A) (A) (A) (A) (A) (A) (A) (A)
                 (A) (A) (A) (A) (A) (A) (A) (A) (A) (A) (A) (A)
                 (A) (A) (A) (A) (A) (A) (A) (A) (A) (A) (A) (A)
                 (A) (A) (A) (A) (A) (A) (A) (A) (A) (A) (A) (A)
                 (A) (A) (A) (A) (A) (A) (A) (A) (A) (A) (A) (A)
                 (A) (A) (A) (A) (A) (A) (A) (A) (A) (A) (A) (A)
                 (A) (A) (A) (A) (A) (A) (A) (A) (A) (A) (A) (A)
                 (A) (A) (A) (A) (A) (A) (A) (A) (A) (A) (A) (A)
                 (A) (A) (A) (A) (A) (A) (A) (A) (A) (A) (A) (A)
                 (A) (A) (A) (A) (A) (A) (A) (A) (A) (A) (A) (A)
                 (A) (A) (A) (A) (A) (A) (A) (A) (A) (A) (A) (A)
                 (A) (A) (A) (A) (A) (A) (A) (A) (A) (A) (A) (A)
                 (A) (A) (A) (A) (A) (A) (A) (A) (A) (A) (A) (A)
                 (A) (A) (A) (A) (A) (A) (A) (A) (A) (A) (A) (A)
                 (A) (A) (A) (A) (A) (A) (A) (A) (A) (A) (A) (A)
                 (A) (A) (A) (A) (A) (A) (A) (A) (A) (A) (A) (A)
                 (A) (A) (A) (A) (A) (A) (A) (A) (A) (A) (A) (A)
                 (A) (A) (A) (A) (A) (A) (A) (A) (A) (A) (A) (A)
                 (A) (A) (A) (A) (A) (A) (A) (A) (A) (A) (A) (A)
                 (A) (A) (A) (A) (A) (A) (A) (A) (A) (A) (A) (A)
                 (A) (A) (A) (A) (A) (A) (A) (A) (A) (A) (A) (A)
                 (A) (A) (A) (A) (A) (A) (A) (A) (A) (A) (A) (A)
                 (A) (A) (A) (A) (A) (A) (A) (A) (A) (A) (A) (A)
                 (A) (A) (A) (A) (A) (A) (A) (A) (A) (A) (A) (A)
                 (A) (A) (A) (A) (A) (A) (A) (A) (A) (A) (A) (A)
                 (A) (A) (A) (A) (A) (A) (A) (A) (A) (A) (A) (A)
                 (A) (A) (A) (A) (A) (A) (A) (A) (A) (A) (A) (A)
                 (A) (A) (A) (A) (A) (A) (A) (A) (A) (A) (A) (A)
                 (A) (A) (A) (A) (A) (A) (A) (A) (A) (A) (A) (A)
                 (A) (A) (A) (A) (A) (A) (A) (A) (A) (A) (A) (A)
                 (A) (A) (A) (A) (A) (A) (A) (A) (A) (A) (A) (A)
                 (A) (A) (A) (A) (A) (A) (A) (A) (A) (A)
    80 initial guesses have been made.
 Convergence on wavefunction:    0.001000000000000
 Davidson Disk Diagonalization:  ConvIn= 1.00D-03 SkipCon=T Conv= 1.00D-03.
 Max sub-space:  2000 roots to seek:    80 dimension of matrix:        43036
 Iteration     1 Dimension    80 NMult     0 NNew     80
 CISAX will form    80 AO SS matrices at one time.
 NMat=    80 NSing=    80 JSym2X= 0.
 FoFJK:  IHMeth= 1 ICntrl=       0 DoSepK=T KAlg= 0 I1Cent=           0 FoldK=F
 IRaf=         1 NMat=     160 IRICut=       1 DoRegI=T DoRafI=F ISym2E= 0 IDoP0=3 IntGTp=3.
 New state      1 was old state      3
 New state      2 was old state      1
 New state      3 was old state      2
 New state      4 was old state      6
 New state      5 was old state      9
 New state      6 was old state      5
 New state      7 was old state      4
 New state      8 was old state     14
 New state      9 was old state      7
 New state     10 was old state     11
 New state     11 was old state     10
 New state     12 was old state      8
 New state     13 was old state     15
 New state     14 was old state     17
 New state     15 was old state     13
 New state     16 was old state     22
 New state     17 was old state     16
 New state     19 was old state     20
 New state     20 was old state     34
 Excitation Energies [eV] at current iteration:
 Root      1 :     3.291132714316224
 Root      2 :     4.027072677293575
 Root      3 :     4.819658819628247
 Root      4 :     4.932775996898038
 Root      5 :     5.233568991116369
 Root      6 :     5.319235473419118
 Root      7 :     5.559349136019046
 Root      8 :     6.008251873814815
 Root      9 :     6.068857573267243
 Root     10 :     6.090474437386576
 Root     11 :     6.255096140416297
 Root     12 :     6.639835735861342
 Root     13 :     6.704602644727511
 Root     14 :     6.829413242945733
 Root     15 :     6.874201839475268
 Root     16 :     6.982364619666231
 Root     17 :     7.021067041358017
 Root     18 :     7.091801809218460
 Root     19 :     7.239224502482235
 Root     20 :     7.282501614690114
 Root     21 :     7.287774228620745
 Root     22 :     7.488453425536159
 Root     23 :     7.494021751624860
 Root     24 :     7.579343106822858
 Root     25 :     7.637378574649590
 Root     26 :     7.653403645938538
 Root     27 :     7.717295492258973
 Root     28 :     7.778581586131756
 Root     29 :     7.859097912593589
 Root     30 :     7.968278424071786
 Root     31 :     7.970143392073931
 Root     32 :     7.980273045254227
 Root     33 :     8.021286476874002
 Root     34 :     8.078827736021490
 Root     35 :     8.173828114854604
 Root     36 :     8.262680285053150
 Root     37 :     8.325649928635267
 Root     38 :     8.401604599254430
 Root     39 :     8.408224010988068
 Root     40 :     8.408269418300115
 Root     41 :     8.416179429699975
 Root     42 :     8.487017632229833
 Root     43 :     8.528348194202513
 Root     44 :     8.582548179036808
 Root     45 :     8.613960207093191
 Root     46 :     8.641879255623575
 Root     47 :     8.694775616771292
 Root     48 :     8.719939862979905
 Root     49 :     8.731814885428582
 Root     50 :     8.738139930602081
 Root     51 :     8.844401626618355
 Root     52 :     8.870780881099238
 Root     53 :     8.970729327738544
 Root     54 :     8.976571451991850
 Root     55 :     9.048395112800240
 Root     56 :     9.065984381188864
 Root     57 :     9.086848953739407
 Root     58 :     9.145054136899224
 Root     59 :     9.207016712490505
 Root     60 :     9.277216971336657
 Root     61 :     9.313615590854756
 Root     62 :     9.338899645245371
 Root     63 :     9.369494342471453
 Root     64 :     9.373516517721491
 Root     65 :     9.489336995044969
 Root     66 :     9.498195339085193
 Root     67 :     9.547658764405583
 Root     68 :     9.570227465865310
 Root     69 :     9.616789793630046
 Root     70 :     9.637792481918975
 Root     71 :     9.655938651806007
 Root     72 :     9.664169466326006
 Root     73 :     9.719415373252652
 Root     74 :     9.727864006660919
 Root     75 :     9.733633814975224
 Root     76 :     9.809050273228836
 Root     77 :     9.918448959606391
 Root     78 :     9.951683648765606
 Root     79 :     9.979797287784134
 Root     80 :    10.139056051285609
 Iteration     2 Dimension   120 NMult    80 NNew     40
 CISAX will form    40 AO SS matrices at one time.
 NMat=    40 NSing=    40 JSym2X= 0.
 Root      1 not converged, maximum delta is    0.067327157791233
 Root      2 not converged, maximum delta is    0.050991508251377
 Root      3 not converged, maximum delta is    0.048508024955199
 Root      4 not converged, maximum delta is    0.107204510340130
 Root      5 not converged, maximum delta is    0.185857318065601
 Root      6 not converged, maximum delta is    0.263593833185809
 Root      7 not converged, maximum delta is    0.155095127583852
 New state      8 was old state      9
 Root      8 not converged, maximum delta is    0.087670601655336
 New state      9 was old state      8
 Root      9 not converged, maximum delta is    0.162529397683761
 Root     10 not converged, maximum delta is    0.168558333276110
 Root     11 not converged, maximum delta is    0.210507371574701
 Root     12 not converged, maximum delta is    0.272107893376384
 New state     13 was old state     17
 Root     13 not converged, maximum delta is    0.253015218111902
 New state     14 was old state     15
 Root     14 not converged, maximum delta is    0.144695678146980
 New state     15 was old state     13
 Root     15 not converged, maximum delta is    0.217546839348952
 New state     16 was old state     14
 Root     16 not converged, maximum delta is    0.031230369566906
 New state     17 was old state     16
 Root     17 not converged, maximum delta is    0.109611114952365
 Root     18 not converged, maximum delta is    0.037736606020011
 Root     19 not converged, maximum delta is    0.044056483368683
 Root     20 not converged, maximum delta is    0.133080019751215
 Excitation Energies [eV] at current iteration:
 Root      1 :     3.080937715132286   Change is   -0.210194999183938
 Root      2 :     3.571685036721873   Change is   -0.455387640571702
 Root      3 :     4.637409520994540   Change is   -0.182249298633708
 Root      4 :     4.809602025869956   Change is   -0.123173971028083
 Root      5 :     4.922862071904870   Change is   -0.310706919211499
 Root      6 :     5.085333708192972   Change is   -0.233901765226146
 Root      7 :     5.277484249922167   Change is   -0.281864886096880
 Root      8 :     5.701478200609755   Change is   -0.367379372657488
 Root      9 :     5.930743326574173   Change is   -0.077508547240642
 Root     10 :     5.988588689244883   Change is   -0.101885748141694
 Root     11 :     5.995835161926664   Change is   -0.259260978489633
 Root     12 :     6.212904319366625   Change is   -0.426931416494718
 Root     13 :     6.407278235115355   Change is   -0.613788806242663
 Root     14 :     6.459739200818294   Change is   -0.414462638656974
 Root     15 :     6.576447224494851   Change is   -0.128155420232659
 Root     16 :     6.750558313094919   Change is   -0.078854929850814
 Root     17 :     6.789112940600702   Change is   -0.193251679065530
 Root     18 :     6.999936357686996   Change is   -0.091865451531463
 Root     19 :     7.132709313031365   Change is   -0.106515189450869
 Root     20 :     7.163023283566052   Change is   -0.119478331124062
 Iteration     3 Dimension   160 NMult   120 NNew     40
 CISAX will form    40 AO SS matrices at one time.
 NMat=    40 NSing=    40 JSym2X= 0.
 Root      1 not converged, maximum delta is    0.006395468847192
 Root      2 not converged, maximum delta is    0.004064037395321
 Root      3 not converged, maximum delta is    0.004862980248225
 Root      4 not converged, maximum delta is    0.025185994648507
 Root      5 not converged, maximum delta is    0.028384342582088
 Root      6 not converged, maximum delta is    0.009974864621957
 Root      7 not converged, maximum delta is    0.011028903936612
 Root      8 not converged, maximum delta is    0.005228213018877
 Root      9 not converged, maximum delta is    0.014546017846105
 New state     10 was old state     11
 Root     10 not converged, maximum delta is    0.033153275478131
 New state     11 was old state     10
 Root     11 not converged, maximum delta is    0.015514245202026
 Root     12 not converged, maximum delta is    0.033132355082833
 Root     13 not converged, maximum delta is    0.079995951826945
 Root     14 not converged, maximum delta is    0.061557782697520
 Root     15 not converged, maximum delta is    0.014539352070913
 Root     16 not converged, maximum delta is    0.006199422703740
 Root     17 not converged, maximum delta is    0.011754547760973
 Root     18 not converged, maximum delta is    0.005632832689157
 No map to state     19
 New state     20 was old state     19
 Root     20 not converged, maximum delta is    0.064266984365210
 Excitation Energies [eV] at current iteration:
 Root      1 :     3.076227875408601   Change is   -0.004709839723685
 Root      2 :     3.552054498003392   Change is   -0.019630538718481
 Root      3 :     4.630430390809611   Change is   -0.006979130184929
 Root      4 :     4.802103621261424   Change is   -0.007498404608532
 Root      5 :     4.907140624856070   Change is   -0.015721447048800
 Root      6 :     5.072020133927866   Change is   -0.013313574265105
 Root      7 :     5.264882730663805   Change is   -0.012601519258361
 Root      8 :     5.689360655730402   Change is   -0.012117544879353
 Root      9 :     5.924415424420932   Change is   -0.006327902153241
 Root     10 :     5.979451376323189   Change is   -0.016383785603476
 Root     11 :     5.981910649045295   Change is   -0.006678040199588
 Root     12 :     6.174401050073097   Change is   -0.038503269293527
 Root     13 :     6.384246341709089   Change is   -0.023031893406266
 Root     14 :     6.429976088476653   Change is   -0.029763112341641
 Root     15 :     6.572054103677077   Change is   -0.004393120817774
 Root     16 :     6.747609762992250   Change is   -0.002948550102668
 Root     17 :     6.779062617015607   Change is   -0.010050323585095
 Root     18 :     6.996387999260876   Change is   -0.003548358426121
 Root     19 :     7.057006984877185
 Root     20 :     7.126932815532041   Change is   -0.005776497499324
 Iteration     4 Dimension   200 NMult   160 NNew     40
 CISAX will form    40 AO SS matrices at one time.
 NMat=    40 NSing=    40 JSym2X= 0.
 Root      1 has converged.
 Root      2 not converged, maximum delta is    0.001737466760010
 Root      3 not converged, maximum delta is    0.001212195664264
 Root      4 not converged, maximum delta is    0.002132871082066
 Root      5 not converged, maximum delta is    0.002050722868428
 Root      6 has converged.
 Root      7 not converged, maximum delta is    0.001087475304287
 Root      8 has converged.
 Root      9 not converged, maximum delta is    0.003652590284145
 Root     10 not converged, maximum delta is    0.003005699988335
 Root     11 not converged, maximum delta is    0.003680968051912
 Root     12 not converged, maximum delta is    0.005408869604682
 Root     13 not converged, maximum delta is    0.014470294458959
 Root     14 not converged, maximum delta is    0.010960309250292
 Root     15 not converged, maximum delta is    0.002947800050590
 Root     16 has converged.
 Root     17 not converged, maximum delta is    0.004030978387575
 New state     18 was old state     19
 Root     18 not converged, maximum delta is    0.147552636884375
 New state     19 was old state     18
 Root     19 not converged, maximum delta is    0.003231490480099
 No map to state     20
 Excitation Energies [eV] at current iteration:
 Root      1 :     3.076130472443227   Change is   -0.000097402965374
 Root      2 :     3.550391040309778   Change is   -0.001663457693613
 Root      3 :     4.630030996189591   Change is   -0.000399394620020
 Root      4 :     4.801541253253167   Change is   -0.000562368008258
 Root      5 :     4.906217137715851   Change is   -0.000923487140219
 Root      6 :     5.071244393899589   Change is   -0.000775740028277
 Root      7 :     5.264026077336004   Change is   -0.000856653327802
 Root      8 :     5.688840114104840   Change is   -0.000520541625562
 Root      9 :     5.923955976904081   Change is   -0.000459447516850
 Root     10 :     5.978260119490086   Change is   -0.001191256833102
 Root     11 :     5.981444583922865   Change is   -0.000466065122430
 Root     12 :     6.170759741177937   Change is   -0.003641308895161
 Root     13 :     6.381715326887088   Change is   -0.002531014822001
 Root     14 :     6.426754913316262   Change is   -0.003221175160391
 Root     15 :     6.571767740961482   Change is   -0.000286362715595
 Root     16 :     6.747455724800259   Change is   -0.000154038191991
 Root     17 :     6.778119618320759   Change is   -0.000942998694848
 Root     18 :     6.902516476841795   Change is   -0.154490508035389
 Root     19 :     6.996056808645832   Change is   -0.000331190615044
 Root     20 :     7.098262005661058
 Iteration     5 Dimension   232 NMult   200 NNew     32
 CISAX will form    32 AO SS matrices at one time.
 NMat=    32 NSing=    32 JSym2X= 0.
 Root      1 has converged.
 Root      2 has converged.
 Root      3 has converged.
 Root      4 has converged.
 Root      5 has converged.
 Root      6 has converged.
 Root      7 has converged.
 Root      8 has converged.
 Root      9 has converged.
 Root     10 has converged.
 Root     11 not converged, maximum delta is    0.001018649648978
 Root     12 has converged.
 Root     13 not converged, maximum delta is    0.001051101380925
 Root     14 not converged, maximum delta is    0.001547347188392
 Root     15 has converged.
 Root     16 has converged.
 Root     17 not converged, maximum delta is    0.001321229992873
 Root     18 not converged, maximum delta is    0.090306626858171
 Root     19 not converged, maximum delta is    0.007633043767811
 Root     20 not converged, maximum delta is    0.077605235375963
 Excitation Energies [eV] at current iteration:
 Root      1 :     3.076130209742630   Change is   -0.000000262700597
 Root      2 :     3.550325398952198   Change is   -0.000065641357580
 Root      3 :     4.630017935526264   Change is   -0.000013060663327
 Root      4 :     4.801517689747545   Change is   -0.000023563505622
 Root      5 :     4.906175017846604   Change is   -0.000042119869247
 Root      6 :     5.071227492896442   Change is   -0.000016901003147
 Root      7 :     5.263994498140386   Change is   -0.000031579195618
 Root      8 :     5.688833801067911   Change is   -0.000006313036929
 Root      9 :     5.923924881796458   Change is   -0.000031095107624
 Root     10 :     5.978203593789770   Change is   -0.000056525700316
 Root     11 :     5.981412158776776   Change is   -0.000032425146089
 Root     12 :     6.170577398915151   Change is   -0.000182342262786
 Root     13 :     6.381527719422667   Change is   -0.000187607464420
 Root     14 :     6.426557167540342   Change is   -0.000197745775919
 Root     15 :     6.571751799931111   Change is   -0.000015941030371
 Root     16 :     6.747451018907848   Change is   -0.000004705892412
 Root     17 :     6.778031580259216   Change is   -0.000088038061543
 Root     18 :     6.881918586584921   Change is   -0.020597890256874
 Root     19 :     6.995999103122002   Change is   -0.000057705523830
 Root     20 :     6.997224238928720   Change is   -0.101037766732338
 Iteration     6 Dimension   246 NMult   232 NNew     14
 CISAX will form    14 AO SS matrices at one time.
 NMat=    14 NSing=    14 JSym2X= 0.
 Root      1 has converged.
 Root      2 has converged.
 Root      3 has converged.
 Root      4 has converged.
 Root      5 has converged.
 Root      6 has converged.
 Root      7 has converged.
 Root      8 has converged.
 Root      9 has converged.
 Root     10 has converged.
 Root     11 has converged.
 Root     12 has converged.
 Root     13 has converged.
 Root     14 has converged.
 Root     15 has converged.
 Root     16 has converged.
 Root     17 has converged.
 Root     18 not converged, maximum delta is    0.007126001964150
 New state     19 was old state     20
 Root     19 not converged, maximum delta is    0.014879904564435
 New state     20 was old state     19
 Root     20 not converged, maximum delta is    0.010337769877043
 Excitation Energies [eV] at current iteration:
 Root      1 :     3.076130134176542   Change is   -0.000000075566088
 Root      2 :     3.550324994371972   Change is   -0.000000404580227
 Root      3 :     4.630017908845590   Change is   -0.000000026680674
 Root      4 :     4.801517299445848   Change is   -0.000000390301697
 Root      5 :     4.906174702628930   Change is   -0.000000315217674
 Root      6 :     5.071226615979581   Change is   -0.000000876916861
 Root      7 :     5.263993988622393   Change is   -0.000000509517993
 Root      8 :     5.688833030692363   Change is   -0.000000770375548
 Root      9 :     5.923924628680020   Change is   -0.000000253116437
 Root     10 :     5.978203115112913   Change is   -0.000000478676857
 Root     11 :     5.981410144162720   Change is   -0.000002014614056
 Root     12 :     6.170574338951972   Change is   -0.000003059963179
 Root     13 :     6.381517586330070   Change is   -0.000010133092598
 Root     14 :     6.426546748809280   Change is   -0.000010418731063
 Root     15 :     6.571751529802180   Change is   -0.000000270128931
 Root     16 :     6.747450087357774   Change is   -0.000000931550073
 Root     17 :     6.778025535082250   Change is   -0.000006045176966
 Root     18 :     6.880580360219533   Change is   -0.001338226365389
 Root     19 :     6.992381880423744   Change is   -0.004842358504977
 Root     20 :     6.995987856243193   Change is   -0.000011246878809
 Iteration     7 Dimension   252 NMult   246 NNew      6
 CISAX will form     6 AO SS matrices at one time.
 NMat=     6 NSing=     6 JSym2X= 0.
 Root      1 has converged.
 Root      2 has converged.
 Root      3 has converged.
 Root      4 has converged.
 Root      5 has converged.
 Root      6 has converged.
 Root      7 has converged.
 Root      8 has converged.
 Root      9 has converged.
 Root     10 has converged.
 Root     11 has converged.
 Root     12 has converged.
 Root     13 has converged.
 Root     14 has converged.
 Root     15 has converged.
 Root     16 has converged.
 Root     17 has converged.
 Root     18 has converged.
 Root     19 has converged.
 Root     20 has converged.
 Excitation Energies [eV] at current iteration:
 Root      1 :     3.076130123714688   Change is   -0.000000010461854
 Root      2 :     3.550324948725738   Change is   -0.000000045646234
 Root      3 :     4.630017904596472   Change is   -0.000000004249118
 Root      4 :     4.801517275104499   Change is   -0.000000024341350
 Root      5 :     4.906174642983904   Change is   -0.000000059645026
 Root      6 :     5.071225921662296   Change is   -0.000000694317285
 Root      7 :     5.263993969909089   Change is   -0.000000018713304
 Root      8 :     5.688832833671822   Change is   -0.000000197020541
 Root      9 :     5.923924614621677   Change is   -0.000000014058344
 Root     10 :     5.978203091308609   Change is   -0.000000023804304
 Root     11 :     5.981410140619532   Change is   -0.000000003543189
 Root     12 :     6.170574217733963   Change is   -0.000000121218009
 Root     13 :     6.381517527121215   Change is   -0.000000059208855
 Root     14 :     6.426546585400281   Change is   -0.000000163408998
 Root     15 :     6.571751517177020   Change is   -0.000000012625160
 Root     16 :     6.747449786017739   Change is   -0.000000301340035
 Root     17 :     6.778025485748503   Change is   -0.000000049333747
 Root     18 :     6.880504637646007   Change is   -0.000075722573525
 Root     19 :     6.992127512591336   Change is   -0.000254367832408
 Root     20 :     6.995985422492431   Change is   -0.000002433750762
 Convergence achieved on expansion vectors.
 ***********************************************************************
 Excited states from <AA,BB:AA,BB> singles matrix:
 ***********************************************************************
 
 1PDM for each excited state written to RWF  633
 Ground to excited state transition densities written to RWF  633
 Ground to excited state transition electric dipole moments (Au):
       state          X           Y           Z        Dip. S.      Osc.
         1        -0.0001     -0.0000      0.0080      0.0001      0.0000
         2        -3.5639     -0.1951      0.0001     12.7395      1.1081
         3         0.2236      0.0284     -0.0000      0.0508      0.0058
         4        -0.0375     -0.6051     -0.0000      0.3675      0.0432
         5        -0.6503      0.7308     -0.0000      0.9570      0.1150
         6        -0.4240     -0.9510     -0.0000      1.0842      0.1347
         7        -0.4387      0.1926      0.0001      0.2296      0.0296
         8         0.6267      0.8638      0.0001      1.1388      0.1587
         9         0.0003     -0.0003     -0.0189      0.0004      0.0001
        10        -0.5522      1.1597      0.0000      1.6499      0.2416
        11         0.0009     -0.0018      0.0072      0.0001      0.0000
        12        -0.4658      1.2295     -0.0000      1.7287      0.2613
        13        -0.1790     -0.3085      0.0000      0.1272      0.0199
        14        -0.1022     -0.3294      0.0000      0.1190      0.0187
        15        -0.0202     -0.3709     -0.0001      0.1380      0.0222
        16        -0.0002     -0.0001      0.0829      0.0069      0.0011
        17         0.0001     -0.0000     -0.0254      0.0006      0.0001
        18        -1.7644     -1.1271      0.0000      4.3833      0.7389
        19        -1.1292      1.0650     -0.0010      2.4093      0.4127
        20         0.0065     -0.0059     -0.1489      0.0222      0.0038
 Ground to excited state transition velocity dipole moments (Au):
       state          X           Y           Z        Dip. S.      Osc.
         1         0.0000      0.0000      0.0019      0.0000      0.0000
         2         0.4544      0.0182     -0.0000      0.2068      1.0565
         3        -0.0415     -0.0018      0.0000      0.0017      0.0067
         4         0.0074      0.1103      0.0000      0.0122      0.0462
         5         0.1110     -0.1280      0.0000      0.0287      0.1061
         6         0.0828      0.1778     -0.0000      0.0385      0.1376
         7         0.0833     -0.0358     -0.0000      0.0082      0.0283
         8        -0.1272     -0.1859     -0.0000      0.0507      0.1617
         9        -0.0001      0.0001      0.0049      0.0000      0.0001
        10         0.1260     -0.2535      0.0000      0.0801      0.2432
        11        -0.0002      0.0004      0.0055      0.0000      0.0001
        12         0.1075     -0.2691      0.0000      0.0840      0.2469
        13         0.0318      0.0694     -0.0000      0.0058      0.0166
        14         0.0283      0.0772     -0.0000      0.0068      0.0191
        15         0.0087      0.0939      0.0000      0.0089      0.0246
        16         0.0000      0.0000     -0.0135      0.0002      0.0005
        17        -0.0000      0.0000      0.0081      0.0001      0.0002
        18         0.4461      0.2840      0.0000      0.2797      0.7375
        19         0.2894     -0.2689      0.0003      0.1561      0.4049
        20        -0.0017      0.0015      0.0421      0.0018      0.0046
 Ground to excited state transition magnetic dipole moments (Au):
       state          X           Y           Z
         1         0.9223      0.4262     -0.0001
         2        -0.0000     -0.0001      0.3386
         3        -0.0000      0.0000     -0.2994
         4        -0.0000     -0.0000      0.1115
         5         0.0001     -0.0001      1.1238
         6        -0.0001     -0.0001     -1.6259
         7         0.0000     -0.0000      0.4045
         8        -0.0000      0.0002     -1.8448
         9         0.0607     -0.0291     -0.0003
        10         0.0003      0.0001      0.9921
        11         0.2046      0.0493     -0.0018
        12         0.0000     -0.0000      0.2293
        13         0.0000      0.0000     -0.1673
        14        -0.0000     -0.0001     -0.2786
        15         0.0000     -0.0000      0.2819
        16        -0.0632     -0.4814     -0.0001
        17         0.5353      0.2852      0.0003
        18         0.0001     -0.0002     -2.7268
        19         0.0010     -0.0015      1.0140
        20         0.1653     -0.2446     -0.0056
 Ground to excited state transition velocity quadrupole moments (Au):
       state          XX          YY          ZZ          XY          XZ          YZ
         1        -0.0001     -0.0000     -0.0000     -0.0000      0.0000      0.0729
         2         0.6566     -0.5378     -0.0167     -0.0269      0.0000      0.0000
         3         0.6045     -0.0938     -0.0038      0.0795     -0.0000     -0.0000
         4        -0.6120     -0.1330      0.0025      0.2919      0.0000     -0.0000
         5         1.4768     -0.0435      0.0202      1.0556      0.0000      0.0000
         6         0.9280      0.1900     -0.0040     -0.8791      0.0000     -0.0000
         7        -2.3114     -0.2494     -0.0150      0.2928      0.0000      0.0000
         8        -1.0994      0.1279      0.0010     -1.4359     -0.0002      0.0000
         9         0.0004      0.0001     -0.0000     -0.0003     -0.0154      0.0304
        10        -2.5027     -0.3322      0.0080      1.8701     -0.0001      0.0000
        11         0.0041      0.0006     -0.0000     -0.0033     -0.0392      0.0387
        12        -1.6086      0.0656      0.0339      2.0720      0.0000     -0.0000
        13        -0.1951     -0.0534     -0.0080     -0.8595     -0.0000      0.0000
        14        -0.6544      0.4169      0.0071     -0.3983      0.0001      0.0000
        15         0.8175     -0.0236      0.0078      0.8504      0.0001     -0.0000
        16         0.0005      0.0000     -0.0001     -0.0003      0.3737     -0.0346
        17        -0.0001     -0.0001     -0.0000      0.0002     -0.0251      0.0782
        18         0.6348      1.5422      0.0027     -1.8317      0.0002      0.0001
        19         6.4131     -0.7730      0.0303      1.0926      0.0009      0.0012
        20        -0.0364      0.0043     -0.0002     -0.0061      0.1629      0.1845
 <0|del|b> * <b|rxdel|0> + <0|del|b> * <b|delr+rdel|0>
 Rotatory Strengths (R) in cgs (10**-40 erg-esu-cm/Gauss)
       state          XX          YY          ZZ    R(velocity)    E-M Angle
         1         0.0018      0.0243      0.0232      0.0164       90.00
         2        -0.0143     -0.0050     -0.0409     -0.0201       90.00
         3        -0.0024     -0.0002     -0.0008     -0.0011       90.00
         4        -0.0112     -0.0020      0.0065     -0.0023       90.00
         5         0.0553      0.0265      0.0156      0.0324       90.00
         6        -0.0282     -0.0107     -0.0081     -0.0156       90.00
         7        -0.0090      0.0076      0.0008     -0.0002       90.00
         8         0.0302      0.0206      0.0065      0.0191       90.00
         9        -0.0059     -0.0089     -0.0080     -0.0076       90.00
        10        -0.0829      0.0633      0.0619      0.0141       90.00
        11         0.0096     -0.0636     -0.0459     -0.0333       90.00
        12         0.0364     -0.0043      0.0089      0.0136       90.00
        13         0.0200     -0.0079      0.0007      0.0043       90.00
        14        -0.0187      0.0004     -0.0014     -0.0066       90.00
        15         0.0114     -0.0125      0.0071      0.0020       90.00
        16        -0.0207     -0.0091     -0.0049     -0.0116       90.00
        17         0.0086     -0.0163     -0.0100     -0.0059       90.00
        18        -0.2111      0.0867     -0.0270     -0.0505       90.00
        19         1.7561      0.8302      0.1474      0.9112       89.86
        20        -1.5086     -0.7928     -0.1218     -0.8077       94.06
 1/2[<0|r|b>*<b|rxdel|0> + (<0|rxdel|b>*<b|r|0>)*]
 Rotatory Strengths (R) in cgs (10**-40 erg-esu-cm/Gauss)
       state          XX          YY          ZZ     R(length)
         1         0.0433      0.0075      0.0004      0.0171
         2        -0.0325     -0.0136     -0.0159     -0.0207
         3         0.0024     -0.0004     -0.0047     -0.0009
         4        -0.0004     -0.0080      0.0015     -0.0023
         5         0.0329      0.0428      0.0281      0.0346
         6        -0.0161     -0.0355     -0.0153     -0.0223
         7         0.0117      0.0013     -0.0155     -0.0008
         8         0.0201     -0.1277      0.1599      0.0174
         9        -0.0124     -0.0065     -0.0037     -0.0075
        10         0.1235     -0.1012     -0.0270     -0.0016
        11        -0.1231      0.0625      0.0094     -0.0171
        12         0.0132      0.0258      0.0026      0.0139
        13         0.0029      0.0061      0.0034      0.0042
        14        -0.0001     -0.0233      0.0030     -0.0068
        15         0.0007     -0.0077      0.0130      0.0020
        16        -0.0073     -0.0330      0.0045     -0.0119
        17        -0.0296      0.0060      0.0048     -0.0063
[...]
    12  H   -0.000000   0.000000  -0.000000  -0.000000   0.000000   0.000000
    13  H   -0.000014   0.000000  -0.000000  -0.000000   0.000000  -0.000000
    14  H    0.000000  -0.000000   0.000000   0.000000  -0.000000   0.000000
    15  C   -0.051860   0.018047  -0.074446  -0.068381   0.008245   0.008291
    16  C    0.407587  -0.055955   0.009638   0.005055  -0.026338  -0.002432
    17  C    0.015257   0.447216   0.438138  -0.025248  -0.000900  -0.029866
    18  C   -0.034798  -0.029675  -0.002898   0.366356   0.423760   0.012334
    19  H    0.533644  -0.002283   0.000174   0.006989  -0.007377   0.000055
    20  C   -0.002283   4.937880  -0.048897   0.482162   0.003595   0.412148
    21  H    0.000174  -0.048897   0.528113   0.010735   0.000007  -0.008696
    22  C    0.006989   0.482162   0.010735   4.859455  -0.049458  -0.056261
    23  H   -0.007377   0.003595   0.000007  -0.049458   0.514469  -0.000180
    24  H    0.000055   0.412148  -0.008696  -0.056261  -0.000180   0.535492
    25  N   -0.000000   0.000000  -0.000004  -0.000000   0.000000   0.000000
    26  C    0.000000  -0.000000  -0.000000   0.000000   0.000000   0.000000
    27  H    0.000000  -0.000000   0.000000  -0.000000  -0.000000  -0.000000
    28  H    0.000000  -0.000000   0.000000  -0.000000  -0.000000  -0.000000
    29  H   -0.000000   0.000000  -0.000000  -0.000000   0.000000   0.000000
    30  C    0.000001   0.000002   0.000314  -0.000000  -0.000000  -0.000000
    31  H    0.000000  -0.000000  -0.000008   0.000000  -0.000000   0.000000
    32  H    0.000004  -0.000033   0.002738   0.000002  -0.000000  -0.000003
    33  H    0.000000  -0.000000  -0.000008   0.000000  -0.000000   0.000000
    34  C   -0.000013   0.006948   0.000018  -0.077019   0.002694  -0.000607
    35  H    0.000005   0.000425  -0.000002  -0.005330   0.000400   0.000164
    36  H    0.000005   0.000425  -0.000002  -0.005330   0.000400   0.000164
    37  H    0.000001  -0.000490   0.000000   0.003405  -0.000021  -0.000137
    38  O   -0.000059  -0.059453  -0.000109   0.392629  -0.007381   0.007689
              25         26         27         28         29         30
     1  N    0.002415  -0.000058   0.000003   0.000003  -0.000002   0.002451
     2  N   -0.000004   0.000004  -0.000000  -0.000000   0.000000  -0.000236
     3  C   -0.049306   0.008554  -0.000308  -0.000308   0.001416  -0.088989
     4  C   -0.061425   0.007066   0.000582   0.000584  -0.001059   0.029115
     5  C    0.429592  -0.061406   0.003693   0.003702  -0.015454   0.318988
     6  C    0.404200  -0.066646  -0.005899  -0.005918   0.007179  -0.004831
     7  C    0.007010  -0.000224   0.000003   0.000003  -0.000004   0.000699
     8  C   -0.054917  -0.005160   0.001479   0.001481   0.000224  -0.000420
     9  C    0.000002   0.000040  -0.000029  -0.000029   0.000001  -0.000006
    10  H   -0.000104   0.000015   0.000000   0.000000  -0.000001   0.000056
    11  C    0.004456  -0.000122   0.000057   0.000058   0.000015   0.000013
    12  H   -0.005471   0.003576  -0.000402  -0.000404  -0.000002  -0.000017
    13  H    0.000004  -0.000000   0.000000   0.000000   0.000000  -0.000000
    14  H   -0.000162  -0.000032   0.000002   0.000002  -0.000001   0.000000
    15  C    0.000001  -0.000000   0.000000   0.000000  -0.000000   0.000008
    16  C   -0.000000   0.000000  -0.000000  -0.000000  -0.000000   0.000000
    17  C   -0.000000  -0.000000   0.000000   0.000000   0.000000  -0.000100
    18  C    0.000000  -0.000000  -0.000000  -0.000000   0.000000  -0.000000
    19  H   -0.000000   0.000000   0.000000   0.000000  -0.000000   0.000001
    20  C    0.000000  -0.000000  -0.000000  -0.000000   0.000000   0.000002
    21  H   -0.000004  -0.000000   0.000000   0.000000  -0.000000   0.000314
    22  C   -0.000000   0.000000  -0.000000  -0.000000  -0.000000  -0.000000
    23  H    0.000000   0.000000  -0.000000  -0.000000   0.000000  -0.000000
    24  H    0.000000   0.000000  -0.000000  -0.000000   0.000000  -0.000000
    25  N    6.643508   0.290450  -0.034906  -0.034887  -0.016351  -0.051768
    26  C    0.290450   4.778879   0.409835   0.409831   0.407001  -0.005958
    27  H   -0.034906   0.409835   0.535846  -0.035516  -0.022056   0.000003
    28  H   -0.034887   0.409831  -0.035516   0.535845  -0.022052   0.000003
    29  H   -0.016351   0.407001  -0.022056  -0.022052   0.512055   0.003219
    30  C   -0.051768  -0.005958   0.000003   0.000003   0.003219   4.847894
    31  H   -0.002425  -0.000680   0.000101  -0.000065  -0.000968   0.409907
    32  H    0.003901   0.000475  -0.000013  -0.000013   0.000203   0.409961
    33  H   -0.002431  -0.000681  -0.000066   0.000102  -0.000972   0.409921
    34  C   -0.000000   0.000000   0.000000   0.000000  -0.000000  -0.000000
    35  H    0.000000  -0.000000   0.000000  -0.000000  -0.000000  -0.000000
    36  H    0.000000  -0.000000  -0.000000   0.000000  -0.000000  -0.000000
    37  H   -0.000000   0.000000  -0.000000  -0.000000  -0.000000   0.000000
    38  O   -0.000000  -0.000000   0.000000   0.000000  -0.000000  -0.000000
              31         32         33         34         35         36
     1  N   -0.000021   0.012986  -0.000021   0.000000   0.000000   0.000000
     2  N    0.000017  -0.000848   0.000017  -0.000000   0.000000   0.000000
     3  C    0.001175  -0.015939   0.001188   0.000000   0.000000   0.000000
     4  C    0.000254   0.003860   0.000254  -0.000000  -0.000000  -0.000000
     5  C   -0.040906  -0.026127  -0.040908   0.000000  -0.000000  -0.000000
     6  C   -0.000545  -0.001034  -0.000546  -0.000000  -0.000000  -0.000000
     7  C    0.000024   0.000118   0.000025  -0.000000   0.000000   0.000000
     8  C   -0.000012  -0.000008  -0.000012  -0.000000  -0.000000  -0.000000
     9  C   -0.000001  -0.000000  -0.000001   0.000000   0.000000   0.000000
    10  H    0.000001   0.000020   0.000001   0.000000   0.000000   0.000000
    11  C   -0.000001   0.000000  -0.000001   0.000000   0.000000   0.000000
    12  H   -0.000002  -0.000001  -0.000002  -0.000000  -0.000000  -0.000000
    13  H    0.000000  -0.000000   0.000000  -0.000000  -0.000000  -0.000000
    14  H    0.000000   0.000000   0.000000   0.000000   0.000000   0.000000
    15  C   -0.000001  -0.000345  -0.000001   0.000036  -0.000004  -0.000004
    16  C   -0.000000   0.000018  -0.000000  -0.000381  -0.000608  -0.000608
    17  C   -0.000005  -0.000173  -0.000005  -0.000276  -0.000046  -0.000046
    18  C   -0.000000  -0.000001  -0.000000  -0.013665   0.002858   0.002859
    19  H    0.000000   0.000004   0.000000  -0.000013   0.000005   0.000005
    20  C   -0.000000  -0.000033  -0.000000   0.006948   0.000425   0.000425
    21  H   -0.000008   0.002738  -0.000008   0.000018  -0.000002  -0.000002
    22  C    0.000000   0.000002   0.000000  -0.077019  -0.005330  -0.005330
    23  H   -0.000000  -0.000000  -0.000000   0.002694   0.000400   0.000400
    24  H    0.000000  -0.000003   0.000000  -0.000607   0.000164   0.000164
    25  N   -0.002425   0.003901  -0.002431  -0.000000   0.000000   0.000000
    26  C   -0.000680   0.000475  -0.000681   0.000000  -0.000000  -0.000000
    27  H    0.000101  -0.000013  -0.000066   0.000000   0.000000  -0.000000
    28  H   -0.000065  -0.000013   0.000102   0.000000  -0.000000   0.000000
    29  H   -0.000968   0.000203  -0.000972  -0.000000  -0.000000  -0.000000
    30  C    0.409907   0.409961   0.409921  -0.000000  -0.000000  -0.000000
    31  H    0.534693  -0.019026  -0.030386  -0.000000   0.000000  -0.000000
    32  H   -0.019026   0.503580  -0.019030   0.000000   0.000000   0.000000
    33  H   -0.030386  -0.019030   0.534700  -0.000000  -0.000000   0.000000
    34  C   -0.000000   0.000000  -0.000000   4.758189   0.403824   0.403823
    35  H    0.000000   0.000000  -0.000000   0.403824   0.571853  -0.045121
    36  H   -0.000000   0.000000   0.000000   0.403823  -0.045121   0.571858
    37  H    0.000000  -0.000000   0.000000   0.405283  -0.023657  -0.023658
    38  O   -0.000000   0.000000  -0.000000   0.269064  -0.033596  -0.033596
              37         38
     1  N    0.000000  -0.000000
     2  N   -0.000000  -0.000000
     3  C    0.000000   0.000000
     4  C    0.000000   0.000000
     5  C    0.000000  -0.000000
     6  C   -0.000000  -0.000000
     7  C   -0.000000  -0.000000
     8  C   -0.000000  -0.000000
     9  C    0.000000  -0.000000
    10  H    0.000000  -0.000000
    11  C    0.000000   0.000000
    12  H   -0.000000  -0.000000
    13  H   -0.000000  -0.000000
    14  H    0.000000   0.000000
    15  C   -0.000006  -0.000537
    16  C    0.000050   0.007152
    17  C    0.000033   0.003302
    18  C    0.001118  -0.080909
    19  H    0.000001  -0.000059
    20  C   -0.000490  -0.059453
    21  H    0.000000  -0.000109
    22  C    0.003405   0.392629
    23  H   -0.000021  -0.007381
    24  H   -0.000137   0.007689
    25  N   -0.000000  -0.000000
    26  C    0.000000  -0.000000
    27  H   -0.000000   0.000000
    28  H   -0.000000   0.000000
    29  H   -0.000000  -0.000000
    30  C    0.000000  -0.000000
    31  H    0.000000  -0.000000
    32  H   -0.000000   0.000000
    33  H    0.000000  -0.000000
    34  C    0.405283   0.269064
    35  H   -0.023657  -0.033596
    36  H   -0.023658  -0.033596
    37  H    0.516879  -0.021481
    38  O   -0.021481   7.907146
 Mulliken charges:
               1
     1  N   -0.180909
     2  N   -0.234129
     3  C   -0.089617
     4  C   -0.060986
     5  C    0.218757
     6  C    0.198633
     7  C   -0.079129
     8  C   -0.085248
     9  C   -0.134294
    10  H    0.109628
    11  C   -0.131802
    12  H    0.127832
    13  H    0.114351
    14  H    0.117026
    15  C   -0.008293
    16  C   -0.078100
    17  C   -0.052652
    18  C   -0.156529
    19  H    0.122920
    20  C   -0.120092
    21  H    0.129658
    22  C    0.161289
    23  H    0.138263
    24  H    0.121981
    25  N   -0.471379
    26  C   -0.174758
    27  H    0.147590
    28  H    0.147578
    29  H    0.147609
    30  C   -0.280230
    31  H    0.148879
    32  H    0.144726
    33  H    0.148862
    34  C   -0.157917
    35  H    0.128834
    36  H    0.128831
    37  H    0.142678
    38  O   -0.349862
 Sum of Mulliken charges =  -0.00000
 Mulliken charges with hydrogens summed into heavy atoms:
               1
     1  N   -0.180909
     2  N   -0.234129
     3  C   -0.089617
     4  C   -0.060986
     5  C    0.218757
     6  C    0.198633
     7  C    0.030499
     8  C    0.042584
     9  C   -0.019943
    11  C   -0.014776
    15  C   -0.008293
    16  C    0.044819
    17  C    0.077007
    18  C   -0.018267
    20  C    0.001889
    22  C    0.161289
    25  N   -0.471379
    26  C    0.268019
    30  C    0.162238
    34  C    0.242426
    38  O   -0.349862
 Electronic spatial extent (au):  <R**2>=           9287.3830
 Charge=             -0.0000 electrons
 Dipole moment (field-independent basis, Debye):
    X=             -2.6862    Y=             -2.1164    Z=              0.0003  Tot=              3.4198
 Quadrupole moment (field-independent basis, Debye-Ang):
   XX=            -75.0499   YY=           -106.2342   ZZ=           -129.0185
   XY=             24.5891   XZ=              0.0017   YZ=              0.0013
 Traceless Quadrupole moment (field-independent basis, Debye-Ang):
   XX=             28.3843   YY=             -2.7999   ZZ=            -25.5843
   XY=             24.5891   XZ=              0.0017   YZ=              0.0013
 Octapole moment (field-independent basis, Debye-Ang**2):
  XXX=             28.8674  YYY=            -22.5196  ZZZ=              0.0016  XYY=            -18.1241
  XXY=             19.6763  XXZ=              0.0176  XZZ=              8.1931  YZZ=            -10.7742
  YYZ=             -0.0021  XYZ=              0.0041
 Hexadecapole moment (field-independent basis, Debye-Ang**3):
 XXXX=          -8158.5313 YYYY=          -1782.7007 ZZZZ=           -159.0023 XXXY=            696.3178
 XXXZ=              0.0988 YYYX=             73.0901 YYYZ=              0.0082 ZZZX=              0.0037
 ZZZY=              0.0013 XXYY=          -1825.0003 XXZZ=          -1849.7595 YYZZ=           -375.9395
 XXYZ=              0.0165 YYXZ=             -0.0006 ZZXY=             45.6349
 N-N= 1.516375275965D+03 E-N=-5.122841231798D+03  KE= 8.943396834459D+02
 Leave Link  601 at Thu Feb  6 16:35:21 2025, MaxMem= 25501368320 cpu:               7.5 elap:               0.3
 (Enter /share/Apps/gaussian/g16/l9999.exe)
 Electronic transition elements 
                 1             2             3             4             5 
      1  -0.897129D+03 -0.897111D+03 -0.897071D+03 -0.897065D+03 -0.897061D+03
      2   0.664393D-04  0.356390D+01 -0.223575D+00  0.374922D-01  0.650278D+00
      3  -0.249528D-04 -0.195113D+00  0.284094D-01 -0.605067D+00  0.730835D+00
      4  -0.796691D-02 -0.662816D-04  0.222067D-04  0.185903D-04  0.353354D-04
      5  -0.789895D-05 -0.454351D+00  0.414595D-01 -0.738630D-02 -0.110958D+00
      6   0.168521D-05  0.181805D-01 -0.183050D-02  0.110328D+00 -0.127992D+00
      7  -0.192228D-02  0.101955D-04 -0.464702D-05 -0.425484D-05 -0.558171D-05
      8  -0.922307D+00  0.129098D-04  0.149775D-04  0.154591D-04 -0.716273D-04
      9   0.426233D+00 -0.985422D-04  0.195140D-04 -0.186074D-04 -0.827193D-04
     10   0.667665D-04 -0.338603D+00  0.299437D+00 -0.111532D+00 -0.112376D+01
     11  -0.651815D-04  0.656583D+00  0.604505D+00 -0.612024D+00  0.147682D+01
     12  -0.668663D-05 -0.537849D+00 -0.937992D-01 -0.133022D+00 -0.435098D-01
     13  -0.242033D-04 -0.167307D-01 -0.376363D-02  0.248731D-02  0.201910D-01
     14   0.142242D-04  0.268872D-01 -0.795283D-01 -0.291892D+00 -0.105559D+01
     15   0.353869D-04  0.172940D-04 -0.409860D-04  0.478118D-04  0.423721D-04
     16  -0.728777D-01 -0.170519D-04  0.248336D-04  0.178224D-04 -0.465405D-04
                 6             7             8             9            10 
      1  -0.897055D+03 -0.897048D+03 -0.897032D+03 -0.897024D+03 -0.897022D+03
      2   0.423977D+00  0.438694D+00 -0.626669D+00 -0.288767D-03  0.552235D+00
      3  -0.951038D+00  0.192633D+00  0.863774D+00 -0.313421D-03  0.115970D+01
      4   0.132799D-04 -0.541483D-04 -0.122537D-03  0.189351D-01 -0.384818D-04
      5  -0.827905D-01 -0.832737D-01  0.127183D+00  0.596949D-04 -0.126036D+00
      6   0.177783D+00 -0.358126D-01 -0.185856D+00  0.694101D-04 -0.253479D+00
      7   0.000000D+00  0.893777D-05  0.271066D-04 -0.493506D-02 -0.457700D-05
      8   0.537028D-04 -0.377561D-04  0.454596D-04 -0.607458D-01 -0.316295D-03
      9  -0.527820D-04 -0.921617D-05  0.209100D-03 -0.291316D-01  0.123395D-03
     10   0.162587D+01 -0.404498D+00  0.184480D+01  0.275354D-03 -0.992129D+00
     11   0.928049D+00 -0.231142D+01 -0.109939D+01  0.363400D-03 -0.250275D+01
     12   0.189972D+00 -0.249443D+00  0.127894D+00  0.984018D-04 -0.332202D+00
     13  -0.403681D-02 -0.149592D-01  0.103592D-02 -0.191977D-04  0.800747D-02
     14   0.879063D+00 -0.292816D+00  0.143588D+01  0.262698D-03 -0.187014D+01
     15   0.433558D-04  0.279257D-04 -0.173326D-03 -0.154214D-01 -0.131614D-03
     16   0.226879D-04 -0.244416D-04 -0.368959D-04 -0.304452D-01 -0.276266D-04
                11            12            13            14            15 
      1  -0.897022D+03 -0.897015D+03 -0.897007D+03 -0.897005D+03 -0.897000D+03
      2  -0.850602D-03  0.465768D+00  0.179042D+00  0.102153D+00  0.202394D-01
      3  -0.179164D-02  0.122954D+01 -0.308496D+00 -0.329420D+00 -0.370882D+00
      4  -0.723902D-02  0.159531D-04 -0.290762D-04 -0.151936D-04  0.653701D-04
      5   0.195821D-03 -0.107525D+00 -0.318463D-01 -0.283148D-01 -0.872539D-02
      6   0.389367D-03 -0.269106D+00  0.693897D-01  0.772144D-01  0.939100D-01
      7  -0.553134D-02 -0.363873D-05  0.937891D-05  0.427785D-05 -0.155911D-04
      8  -0.204617D+00 -0.399715D-04 -0.232791D-04  0.117837D-05 -0.473422D-04
      9   0.493133D-01 -0.297163D-04  0.280944D-04 -0.100143D-03 -0.291983D-04
     10   0.183976D-02 -0.229294D+00  0.167311D+00  0.278604D+00 -0.281854D+00
     11   0.411361D-02 -0.160857D+01 -0.195103D+00 -0.654374D+00  0.817546D+00
     12   0.567390D-03  0.655720D-01 -0.533725D-01  0.416867D+00 -0.235879D-01
     13   0.000000D+00  0.338542D-01 -0.804971D-02  0.712028D-02  0.780870D-02
     14   0.330983D-02 -0.207201D+01  0.859453D+00  0.398263D+00 -0.850366D+00
     15  -0.391897D-01  0.258114D-04 -0.243757D-04  0.987448D-04  0.755700D-04
     16  -0.387275D-01  0.346589D-05 -0.163013D-04 -0.275246D-04  0.129251D-04
                16            17            18            19            20 
      1  -0.896994D+03 -0.896992D+03 -0.896989D+03 -0.896985D+03 -0.896984D+03
      2   0.163016D-03 -0.782809D-04  0.176438D+01  0.112921D+01 -0.654108D-02
      3  -0.967957D-04 -0.295964D-04 -0.112707D+01  0.106498D+01 -0.588280D-02
      4  -0.829449D-01  0.254473D-01 -0.149344D-04  0.952701D-03  0.148883D+00
      5  -0.348111D-04  0.200575D-04 -0.446134D+00 -0.289371D+00  0.170836D-02
      6   0.228863D-04  0.814399D-05  0.284038D+00 -0.268946D+00  0.148401D-02
      7   0.135046D-01 -0.813051D-02 -0.712583D-05 -0.293936D-03 -0.421180D-01
      8   0.631608D-01 -0.535262D+00 -0.747661D-04 -0.994624D-03 -0.165320D+00
      9  -0.481444D+00  0.285190D+00 -0.239616D-03 -0.151500D-02 -0.244622D+00
     10   0.764833D-04 -0.269091D-03  0.272682D+01 -0.101405D+01  0.559214D-02
     11   0.466851D-03 -0.962418D-04  0.634784D+00  0.641314D+01 -0.363579D-01
     12   0.729835D-05 -0.148171D-03  0.154216D+01 -0.773038D+00  0.429324D-02
     13  -0.121701D-03 -0.130037D-04  0.265474D-02  0.302681D-01 -0.160778D-03
     14   0.298253D-03 -0.167646D-03  0.183166D+01 -0.109261D+01  0.609295D-02
     15   0.373697D+00 -0.251315D-01  0.177591D-03  0.927838D-03  0.162906D+00
     16   0.345637D-01 -0.781722D-01 -0.785260D-04 -0.117006D-02 -0.184482D+00
 Unable to Open any file for archive entry.
 1\1\GINC-SOL-E613\SP\RCAM-B3LYP TD-FC\6-311G(d,p)\C17H17N3O1\CRF524\06
 -Feb-2025\0\\#p td(nstates=20, singlets) cam-b3lyp/6-311g(d,p) scrf=(s
 olvent=acetonitrile)\\ome-pai-me_anti-trans_tddft\\0,1\N,0,0.153359,-0
 .72149,0.000068\N,0,-0.557507,0.311264,0.000189\C,0,1.514774,-0.520074
 ,0.000025\C,0,2.308606,0.686921,0.000036\C,0,2.391484,-1.59529,-0.0000
 76\C,0,3.650726,0.258989,-0.000042\C,0,2.035736,2.057398,0.000082\C,0,
 4.718499,1.14941,-0.000082\C,0,3.094762,2.949313,0.000049\H,0,1.012373
 ,2.402176,0.000146\C,0,4.421491,2.501815,-0.000032\H,0,5.744456,0.8032
 9,-0.00016\H,0,2.895289,4.014313,0.000084\H,0,5.229134,3.223785,-0.000
 06\C,0,-1.953665,0.073922,0.000132\C,0,-2.769731,1.197284,0.000004\C,0
 ,-2.551169,-1.192647,0.000238\C,0,-4.154774,1.086441,-0.000068\H,0,-2.
 30391,2.175244,-0.000039\C,0,-3.922247,-1.314447,0.000175\H,0,-1.92248
 6,-2.07218,0.000382\C,0,-4.737802,-0.176599,0.000003\H,0,-4.759331,1.9
 82018,-0.000158\H,0,-4.398202,-2.287307,0.000281\N,0,3.671049,-1.12746
 6,-0.000096\C,0,4.888278,-1.915847,-0.000049\H,0,5.482629,-1.697405,-0
 .888698\H,0,5.48305,-1.696533,0.888098\H,0,4.639484,-2.972905,0.000551
 \C,0,2.061347,-3.043991,-0.000121\H,0,2.465944,-3.544515,0.882804\H,0,
 0.980643,-3.162039,-0.000659\H,0,2.466881,-3.544691,-0.882507\C,0,-6.9
 50986,0.707639,-0.000247\H,0,-6.810889,1.32267,0.89256\H,0,-6.810714,1
 .322498,-0.893156\H,0,-7.957092,0.295976,-0.000323\O,0,-6.072193,-0.40
 7748,-0.000054\\Version=ES64L-G16RevC.01\State=1-A\HF=-897.2415555\RMS
 D=7.259e-09\PG=C01 [X(C17H17N3O1)]\\@
 The archive entry for this job was punched.


 ERROR IS THE FORCE THAT WELDS MEN TOGETHER....
 TRUTH IS COMMUNICATED TO MEN ONLY BY DEEDS OF TRUTH.
           TOLSTOI,MY RELIGION
 Job cpu time:       0 days  2 hours 11 minutes 49.7 seconds.
 Elapsed time:       0 days  0 hours  3 minutes 44.1 seconds.
 File lengths (MBytes):  RWF=   2528 Int=      0 D2E=      0 Chk=    284 Scr=      8
 Normal termination of Gaussian 16 at Thu Feb  6 16:35:21 2025.
