 Entering Gaussian System, Link 0=g16
 Initial command:
 /share/Apps/gaussian/g16/l1.exe "/share/ceph/scratch/crf524/12289157/Gau-1937286.inp" -scrdir="/share/ceph/scratch/crf524/12289157/"
 Entering Link 1 = /share/Apps/gaussian/g16/l1.exe PID=   1937287.
  
 Copyright (c) 1988-2019, Gaussian, Inc.  All Rights Reserved.
  
 This is part of the Gaussian(R) 16 program.  It is based on
 the Gaussian(R) 09 system (copyright 2009, Gaussian, Inc.),
 the Gaussian(R) 03 system (copyright 2003, Gaussian, Inc.),
 the Gaussian(R) 98 system (copyright 1998, Gaussian, Inc.),
 the Gaussian(R) 94 system (copyright 1995, Gaussian, Inc.),
 the Gaussian 92(TM) system (copyright 1992, Gaussian, Inc.),
 the Gaussian 90(TM) system (copyright 1990, Gaussian, Inc.),
 the Gaussian 88(TM) system (copyright 1988, Gaussian, Inc.),
 the Gaussian 86(TM) system (copyright 1986, Carnegie Mellon
 University), and the Gaussian 82(TM) system (copyright 1983,
 Carnegie Mellon University). Gaussian is a federally registered
 trademark of Gaussian, Inc.
  
 This software contains proprietary and confidential information,
 including trade secrets, belonging to Gaussian, Inc.
  
 This software is provided under written license and may be
 used, copied, transmitted, or stored only in accord with that
 written license.
  
 The following legend is applicable only to US Government
 contracts under FAR:
  
                    RESTRICTED RIGHTS LEGEND
  
 Use, reproduction and disclosure by the US Government is
 subject to restrictions as set forth in subparagraphs (a)
 and (c) of the Commercial Computer Software - Restricted
 Rights clause in FAR 52.227-19.
  
 Gaussian, Inc.
 340 Quinnipiac St., Bldg. 40, Wallingford CT 06492
  
  
 ---------------------------------------------------------------
 Warning -- This program may not be used in any manner that
 competes with the business of Gaussian, Inc. or will provide
 assistance to any competitor of Gaussian, Inc.  The licensee
 of this program is prohibited from giving any competitor of
 Gaussian, Inc. access to this program.  By using this program,
 the user acknowledges that Gaussian, Inc. is engaged in the
 business of creating and licensing software in the field of
 computational chemistry and represents and warrants to the
 licensee that it is not a competitor of Gaussian, Inc. and that
 it will not use this program in any manner prohibited above.
 ---------------------------------------------------------------
  

 Cite this work as:
 Gaussian 16, Revision C.01,
 M. J. Frisch, G. W. Trucks, H. B. Schlegel, G. E. Scuseria, 
 M. A. Robb, J. R. Cheeseman, G. Scalmani, V. Barone, 
 G. A. Petersson, H. Nakatsuji, X. Li, M. Caricato, A. V. Marenich, 
 J. Bloino, B. G. Janesko, R. Gomperts, B. Mennucci, H. P. Hratchian, 
 J. V. Ortiz, A. F. Izmaylov, J. L. Sonnenberg, D. Williams-Young, 
 F. Ding, F. Lipparini, F. Egidi, J. Goings, B. Peng, A. Petrone, 
 T. Henderson, D. Ranasinghe, V. G. Zakrzewski, J. Gao, N. Rega, 
 G. Zheng, W. Liang, M. Hada, M. Ehara, K. Toyota, R. Fukuda, 
 J. Hasegawa, M. Ishida, T. Nakajima, Y. Honda, O. Kitao, H. Nakai, 
 T. Vreven, K. Throssell, J. A. Montgomery, Jr., J. E. Peralta, 
 F. Ogliaro, M. J. Bearpark, J. J. Heyd, E. N. Brothers, K. N. Kudin, 
 V. N. Staroverov, T. A. Keith, R. Kobayashi, J. Normand, 
 K. Raghavachari, A. P. Rendell, J. C. Burant, S. S. Iyengar, 
 J. Tomasi, M. Cossi, J. M. Millam, M. Klene, C. Adamo, R. Cammi, 
 J. W. Ochterski, R. L. Martin, K. Morokuma, O. Farkas, 
 J. B. Foresman, and D. J. Fox, Gaussian, Inc., Wallingford CT, 2019.
 
 ******************************************
 Gaussian 16:  ES64L-G16RevC.01  3-Jul-2019
                13-Feb-2025 
 ******************************************
 %nprocshared=36
 Will use up to   36 processors via shared memory.
 %mem=190GB
 %chk=anti-cis.chk
 ----------------------------------------------------------------------
 #p td(nstates=20, singlets) cam-b3lyp/6-311g(d,p) scrf=(solvent=aceton
 itrile)
 ----------------------------------------------------------------------
 1/38=1,172=1/1;
 2/12=2,17=6,18=5,40=1/2;
 3/5=4,6=6,7=101,11=9,25=1,30=1,70=2201,72=2,74=-40/1,2,3,8;
 4//1;
 5/5=2,38=5,53=2/2;
 8/6=1,10=2,108=20/1;
 9/41=20,42=1,48=1,70=2/14;
 6/7=2,8=2,9=2,10=2/1;
 99/5=1,9=1/99;
 Leave Link    1 at Thu Feb 13 13:40:20 2025, MaxMem= 25501368320 cpu:               3.5 elap:               0.1
 (Enter /share/Apps/gaussian/g16/l101.exe)
 -------------------------
 no2-pai-me_anti-cis_tddft
 -------------------------
 Symbolic Z-matrix:
 Charge =  0 Multiplicity = 1
 N                    -1.22231  -2.2671   -0.47056 
 N                    -0.02509  -2.55796  -0.6768 
 C                    -1.75937  -1.01398  -0.21372 
 C                    -1.4073    0.36747  -0.50404 
 C                    -3.02581  -0.99507   0.37059 
 C                    -2.48846   1.1369   -0.02708 
 C                    -0.37413   1.03549  -1.1708 
 C                    -2.54719   2.52029  -0.14854 
 C                    -0.42747   2.41195  -1.30188 
 H                     0.46124   0.49627  -1.59109 
 C                    -1.49712   3.1524   -0.78853 
 H                    -3.39063   3.08269   0.23114 
 H                     0.37691   2.92551  -1.81444 
 H                    -1.51009   4.22921  -0.90356 
 C                     1.06088  -1.67468  -0.45275 
 C                     2.06267  -1.61915  -1.41769 
 C                     1.23517  -1.02635   0.77458 
 C                     3.20586  -0.87241  -1.18556 
 H                     1.93173  -2.16096  -2.34549 
 C                     2.38465  -0.30291   1.01758 
 H                     0.46965  -1.10084   1.53566 
 C                     3.35731  -0.22083   0.02732 
 H                     3.98835  -0.79874  -1.92992 
 H                     2.53302   0.2006    1.96276 
 N                    -3.43788   0.2863    0.5183 
 C                    -4.6826    0.73985   1.11127 
 H                    -4.4781    1.49322   1.87221 
 H                    -5.33724   1.1686    0.35065 
 H                    -5.1893   -0.09771   1.58122 
 C                    -3.83987  -2.15851   0.80607 
 H                    -4.85112  -2.10637   0.3981 
 H                    -3.36131  -3.07107   0.46008 
 H                    -3.91984  -2.20315   1.89518 
 O                     5.03644   0.48937   1.5208 
 O                     4.3944    1.6628    0.99022 
 N                     4.58337   0.51628   0.17598 
 
 ITRead=  0  0  0  0  0  0  0  0  0  0  0  0  0  0  0  0  0  0  0  0
 ITRead=  0  0  0  0  0  0  0  0  0  0  0  0  0  0  0  0
 MicOpt= -1 -1 -1 -1 -1 -1 -1 -1 -1 -1 -1 -1 -1 -1 -1 -1 -1 -1 -1 -1
 MicOpt= -1 -1 -1 -1 -1 -1 -1 -1 -1 -1 -1 -1 -1 -1 -1 -1
 NAtoms=     36 NQM=       36 NQMF=       0 NMMI=      0 NMMIF=      0
                NMic=       0 NMicF=      0.
                    Isotopes and Nuclear Properties:
 (Nuclear quadrupole moments (NQMom) in fm**2, nuclear magnetic moments (NMagM)
  in nuclear magnetons)

  Atom         1           2           3           4           5           6           7           8           9          10
 IAtWgt=          14          14          12          12          12          12          12          12          12           1
 AtmWgt=  14.0030740  14.0030740  12.0000000  12.0000000  12.0000000  12.0000000  12.0000000  12.0000000  12.0000000   1.0078250
 NucSpn=           2           2           0           0           0           0           0           0           0           1
 AtZEff=  -0.0000000  -0.0000000  -0.0000000  -0.0000000  -0.0000000  -0.0000000  -0.0000000  -0.0000000  -0.0000000  -0.0000000
 NQMom=    2.0440000   2.0440000   0.0000000   0.0000000   0.0000000   0.0000000   0.0000000   0.0000000   0.0000000   0.0000000
 NMagM=    0.4037610   0.4037610   0.0000000   0.0000000   0.0000000   0.0000000   0.0000000   0.0000000   0.0000000   2.7928460
 AtZNuc=   7.0000000   7.0000000   6.0000000   6.0000000   6.0000000   6.0000000   6.0000000   6.0000000   6.0000000   1.0000000

  Atom        11          12          13          14          15          16          17          18          19          20
 IAtWgt=          12           1           1           1          12          12          12          12           1          12
 AtmWgt=  12.0000000   1.0078250   1.0078250   1.0078250  12.0000000  12.0000000  12.0000000  12.0000000   1.0078250  12.0000000
 NucSpn=           0           1           1           1           0           0           0           0           1           0
 AtZEff=  -0.0000000  -0.0000000  -0.0000000  -0.0000000  -0.0000000  -0.0000000  -0.0000000  -0.0000000  -0.0000000  -0.0000000
 NQMom=    0.0000000   0.0000000   0.0000000   0.0000000   0.0000000   0.0000000   0.0000000   0.0000000   0.0000000   0.0000000
 NMagM=    0.0000000   2.7928460   2.7928460   2.7928460   0.0000000   0.0000000   0.0000000   0.0000000   2.7928460   0.0000000
 AtZNuc=   6.0000000   1.0000000   1.0000000   1.0000000   6.0000000   6.0000000   6.0000000   6.0000000   1.0000000   6.0000000

  Atom        21          22          23          24          25          26          27          28          29          30
 IAtWgt=           1          12           1           1          14          12           1           1           1          12
 AtmWgt=   1.0078250  12.0000000   1.0078250   1.0078250  14.0030740  12.0000000   1.0078250   1.0078250   1.0078250  12.0000000
 NucSpn=           1           0           1           1           2           0           1           1           1           0
 AtZEff=  -0.0000000  -0.0000000  -0.0000000  -0.0000000  -0.0000000  -0.0000000  -0.0000000  -0.0000000  -0.0000000  -0.0000000
 NQMom=    0.0000000   0.0000000   0.0000000   0.0000000   2.0440000   0.0000000   0.0000000   0.0000000   0.0000000   0.0000000
 NMagM=    2.7928460   0.0000000   2.7928460   2.7928460   0.4037610   0.0000000   2.7928460   2.7928460   2.7928460   0.0000000
 AtZNuc=   1.0000000   6.0000000   1.0000000   1.0000000   7.0000000   6.0000000   1.0000000   1.0000000   1.0000000   6.0000000

  Atom        31          32          33          34          35          36
 IAtWgt=           1           1           1          16          16          14
 AtmWgt=   1.0078250   1.0078250   1.0078250  15.9949146  15.9949146  14.0030740
 NucSpn=           1           1           1           0           0           2
 AtZEff=  -0.0000000  -0.0000000  -0.0000000  -0.0000000  -0.0000000  -0.0000000
 NQMom=    0.0000000   0.0000000   0.0000000   0.0000000   0.0000000   2.0440000
 NMagM=    2.7928460   2.7928460   2.7928460   0.0000000   0.0000000   0.4037610
 AtZNuc=   1.0000000   1.0000000   1.0000000   8.0000000   8.0000000   7.0000000
 Leave Link  101 at Thu Feb 13 13:40:21 2025, MaxMem= 25501368320 cpu:               3.3 elap:               0.1
 (Enter /share/Apps/gaussian/g16/l202.exe)
                          Input orientation:                          
 ---------------------------------------------------------------------
 Center     Atomic      Atomic             Coordinates (Angstroms)
 Number     Number       Type             X           Y           Z
 ---------------------------------------------------------------------
      1          7           0       -1.222305   -2.267098   -0.470563
      2          7           0       -0.025087   -2.557963   -0.676803
      3          6           0       -1.759370   -1.013983   -0.213723
      4          6           0       -1.407300    0.367469   -0.504041
      5          6           0       -3.025806   -0.995066    0.370588
      6          6           0       -2.488461    1.136901   -0.027082
      7          6           0       -0.374126    1.035489   -1.170796
      8          6           0       -2.547193    2.520294   -0.148542
      9          6           0       -0.427467    2.411953   -1.301876
     10          1           0        0.461241    0.496265   -1.591094
     11          6           0       -1.497121    3.152397   -0.788533
     12          1           0       -3.390627    3.082692    0.231137
     13          1           0        0.376912    2.925514   -1.814439
     14          1           0       -1.510086    4.229210   -0.903559
     15          6           0        1.060884   -1.674679   -0.452747
     16          6           0        2.062671   -1.619150   -1.417688
     17          6           0        1.235169   -1.026351    0.774578
     18          6           0        3.205857   -0.872414   -1.185562
     19          1           0        1.931732   -2.160964   -2.345488
     20          6           0        2.384646   -0.302908    1.017581
     21          1           0        0.469651   -1.100843    1.535656
     22          6           0        3.357305   -0.220827    0.027323
     23          1           0        3.988350   -0.798742   -1.929916
     24          1           0        2.533018    0.200601    1.962763
     25          7           0       -3.437882    0.286303    0.518302
     26          6           0       -4.682599    0.739847    1.111268
     27          1           0       -4.478100    1.493216    1.872209
     28          1           0       -5.337236    1.168602    0.350645
     29          1           0       -5.189300   -0.097709    1.581224
     30          6           0       -3.839872   -2.158511    0.806072
     31          1           0       -4.851122   -2.106370    0.398096
     32          1           0       -3.361306   -3.071066    0.460078
     33          1           0       -3.919841   -2.203150    1.895180
     34          8           0        5.036440    0.489365    1.520801
     35          8           0        4.394399    1.662804    0.990221
     36          7           0        4.583372    0.516275    0.175978
 ---------------------------------------------------------------------
                    Distance matrix (angstroms):
                    1          2          3          4          5
     1  N    0.000000
     2  N    1.249187   0.000000
     3  C    1.387337   2.367711   0.000000
     4  C    2.641266   3.240141   1.454870   0.000000
     5  C    2.361825   3.541749   1.394861   2.289332   0.000000
     6  C    3.658830   4.488025   2.278752   1.410115   2.234315
     7  C    3.480922   3.644003   2.652400   1.399379   3.678373
     8  C    4.977765   5.694627   3.621606   2.461786   3.585571
     9  C    4.818337   5.025206   3.833416   2.403441   4.599596
    10  H    3.424338   3.225020   3.018131   2.165576   4.269867
    11  C    5.435766   5.898100   4.214013   2.800862   4.569671
    12  H    5.815003   6.630852   4.431890   3.441876   4.096419
    13  H    5.597028   5.614654   4.758742   3.382920   5.632387
    14  H    6.517079   6.951428   5.294251   3.883713   5.586942
    15  C    2.358862   1.417648   2.906456   3.203893   4.223836
    16  C    3.479648   2.406037   4.052623   4.101476   5.429550
    17  C    3.021425   2.457761   3.153436   3.249653   4.280198
    18  C    4.697338   3.679526   5.061422   4.825246   6.424194
    19  H    3.670771   2.602164   4.414093   4.575263   5.771791
    20  C    4.368376   3.709855   4.381165   4.140482   5.492784
    21  H    2.871895   2.694984   2.834856   3.136758   3.686027
    22  C    5.040629   4.171160   5.183393   4.830104   6.439051
    23  H    5.606845   4.557722   6.002327   5.701421   7.384392
    24  H    5.110094   4.595746   4.963557   4.651782   5.904673
    25  N    3.522285   4.600575   2.245887   2.274871   1.354080
    26  C    4.849489   5.980399   3.657429   3.670895   2.510676
    27  H    5.498067   6.537495   4.246016   4.042732   3.248934
    28  H    5.423198   6.569769   4.228867   4.100817   3.166159
    29  H    4.965192   6.149848   3.978167   4.343759   2.636588
    30  C    2.914317   4.112307   2.584263   3.743578   1.485245
    31  H    3.734798   4.964872   3.335650   4.335163   2.137178
    32  H    2.467343   3.561759   2.692916   4.070772   2.104838
    33  H    3.588528   4.680822   3.244877   4.321713   2.140828
    34  O    7.122886   6.303549   7.172981   6.755489   8.278064
    35  O    7.008950   6.334485   6.817884   6.129472   7.906179
    36  N    6.470786   5.605004   6.536355   6.030980   7.760259
                    6          7          8          9         10
     6  C    0.000000
     7  C    2.405988   0.000000
     8  C    1.389956   2.823450   0.000000
     9  C    2.738349   1.383720   2.415607   0.000000
    10  H    3.399601   1.079468   3.902349   2.131504   0.000000
    11  C    2.371663   2.426632   1.382676   1.398549   3.396222
    12  H    2.160251   3.905859   1.082510   3.402989   4.984678
    13  H    3.821537   2.133197   3.389662   1.083278   2.440952
    14  H    3.359733   3.400246   2.136828   2.152474   4.277115
    15  C    4.547969   3.149581   5.541530   4.431340   2.523570
    16  C    5.499309   3.611931   6.324284   4.739619   2.658877
    17  C    4.380381   3.259677   5.266603   4.347178   2.917829
    18  C    6.148551   4.056672   6.758954   4.899147   3.093648
    19  H    5.982393   4.112687   6.841163   5.250382   3.129268
    20  C    5.187634   3.767111   5.801151   4.545144   3.338166
    21  H    4.024932   3.549754   5.005048   4.603927   3.511038
    22  C    6.001614   4.115507   6.512125   4.798208   3.394213
    23  H    7.022576   4.792897   7.543382   5.495674   3.772578
    24  H    5.481915   4.355194   5.970522   4.930762   4.124267
    25  N    1.386492   3.577839   2.495741   4.110235   4.438107
    26  C    2.503544   4.884482   3.052388   5.169657   5.815598
    27  H    2.773613   5.129522   2.977705   5.227477   6.114366
    28  H    2.873883   5.192780   3.140159   5.327530   6.151806
    29  H    3.377194   5.660711   4.102043   6.106204   6.507305
    30  C    3.657895   5.110875   4.947072   6.080879   5.594087
    31  H    4.035065   5.690008   5.197396   6.547814   6.241137
    32  H    4.325063   5.333553   5.683001   6.463388   5.616496
    33  H    4.110946   5.697463   5.326527   6.611885   6.215692
    34  O    7.709694   6.067715   8.026386   6.443456   5.533207
    35  O    6.977481   5.272793   7.086450   5.391227   4.847033
    36  N    7.101917   5.163349   7.413930   5.557531   4.484965
                   11         12         13         14         15
    11  C    0.000000
    12  H    2.151732   0.000000
    13  H    2.148478   4.289923   0.000000
    14  H    1.083017   2.477594   2.467810   0.000000
    15  C    5.473281   6.551048   4.846009   6.455155   0.000000
    16  C    5.986286   7.386772   4.863452   6.872571   1.392039
    17  C    5.231698   6.211083   4.801755   6.162263   1.398939
    18  C    6.202801   7.820710   4.777308   6.953144   2.404487
    19  H    6.512522   7.903318   5.345254   7.399973   2.139467
    20  C    5.501754   6.740516   4.740679   6.276927   2.407481
    21  H    5.230688   5.839990   5.238634   6.186970   2.152345
    22  C    5.967387   7.515941   4.708959   6.660395   2.760019
    23  H    6.855993   8.613070   5.189017   7.521071   3.394017
    24  H    5.703047   6.811354   5.132368   6.386876   3.393898
    25  N    3.699847   2.811492   5.192280   4.613524   5.002727
    26  C    4.424580   2.816513   6.239836   5.128355   6.423681
    27  H    4.326507   2.530247   6.262108   4.898945   6.791268
    28  H    4.469860   2.732638   6.358130   5.058402   7.047384
    29  H    5.459956   3.895242   7.187011   6.199435   6.759340
    30  C    6.019717   5.291746   7.106030   7.010971   5.082925
    31  H    6.349176   5.393263   7.586007   7.279863   5.988498
    32  H    6.615565   6.158085   7.423387   7.653793   4.726406
    33  H    6.461716   5.566797   7.650265   7.417217   5.531696
    34  O    7.423758   8.910894   6.226544   7.919657   4.937917
    35  O    6.331892   7.949775   5.059719   6.710871   4.932877
    36  N    6.697150   8.377004   5.240277   7.216753   4.195652
                   16         17         18         19         20
    16  C    0.000000
    17  C    2.417064   0.000000
    18  C    1.385053   2.783785   0.000000
    19  H    1.082368   3.392250   2.151554   0.000000
    20  C    2.786879   1.379753   2.419207   3.868816   0.000000
    21  H    3.395379   1.082038   3.865751   4.280749   2.138296
    22  C    2.391535   2.389711   1.385133   3.380329   1.390472
    23  H    2.154921   3.866019   1.082491   2.501605   3.391969
    24  H    3.867838   2.145136   3.393527   4.949703   1.081159
    25  N    6.134728   4.860673   6.955936   6.559204   5.873524
    26  C    7.580182   6.184884   8.372727   8.007074   7.144373
    27  H    7.955623   6.339910   8.601707   8.498703   7.145190
    28  H    8.102912   6.942193   8.916845   8.437597   7.889082
    29  H    7.993706   6.541166   8.873214   8.389588   7.597661
    30  C    6.330563   5.199886   7.433905   6.575998   6.498663
    31  H    7.164844   6.192828   8.303345   7.316922   7.482819
    32  H    5.920607   5.040571   7.118274   6.059351   6.402302
    33  H    6.863425   5.405065   7.876383   7.226752   6.642865
    34  O    4.682292   4.159796   3.539757   5.622424   2.812995
    35  O    4.691077   4.154370   3.545983   5.640291   2.811384
    36  N    3.667935   3.734766   2.383232   4.533938   2.492740
                   21         22         23         24         25
    21  H    0.000000
    22  C    3.374617   0.000000
    23  H    4.947999   2.136115   0.000000
    24  H    2.476623   2.145455   4.274298   0.000000
    25  N    4.269426   6.831750   7.894303   6.143733   0.000000
    26  C    5.487616   8.169326   9.316728   7.285668   1.451424
    27  H    5.596664   8.230135   9.559812   7.129855   2.090875
    28  H    6.346225   8.810794   9.799896   8.091777   2.100977
    29  H    5.747354   8.687590   9.851335   7.737490   2.084402
    30  C    4.496993   7.494026   8.403313   6.893263   2.494298
    31  H    5.533150   8.430363   9.233948   7.892770   2.781471
    32  H    4.440144   7.311010   8.055617   6.906875   3.358747
    33  H    4.540042   7.770158   8.896247   6.886362   2.885386
    34  O    4.835757   2.356765   3.829512   2.558483   8.535829
    35  O    4.831034   2.356014   3.840740   2.559026   7.966310
    36  N    4.624554   1.438283   2.553059   2.737919   8.031848
                   26         27         28         29         30
    26  C    0.000000
    27  H    1.090145   0.000000
    28  H    1.091296   1.777258   0.000000
    29  H    1.085866   1.766782   1.771935   0.000000
    30  C    3.033779   3.857343   3.676846   2.582387   0.000000
    31  H    2.939042   3.907579   3.311193   2.355605   1.091691
    32  H    4.085697   4.906528   4.678788   3.665976   1.086965
    33  H    3.139673   3.738356   3.970303   2.478503   1.092952
    34  O    9.730888   9.573802  10.461538  10.242757   9.290371
    35  O    9.124604   8.917842   9.765143   9.761966   9.079624
    36  N    9.315738   9.270485   9.943566   9.892260   8.860166
                   31         32         33         34         35
    31  H    0.000000
    32  H    1.775959   0.000000
    33  H    1.765761   1.767698   0.000000
    34  O   10.284075   9.182807   9.359742   0.000000
    35  O   10.001847   9.101733   9.213639   1.438990   0.000000
    36  N    9.794758   8.721676   9.091510   1.419346   1.418884
                   36
    36  N    0.000000
 Stoichiometry    C16H14N4O2
 Framework group  C1[X(C16H14N4O2)]
 Deg. of freedom   102
 Full point group                 C1      NOp   1
 Largest Abelian subgroup         C1      NOp   1
 Largest concise Abelian subgroup C1      NOp   1
                         Standard orientation:                         
 ---------------------------------------------------------------------
 Center     Atomic      Atomic             Coordinates (Angstroms)
 Number     Number       Type             X           Y           Z
 ---------------------------------------------------------------------
      1          7           0        1.222305   -2.267098    0.470563
      2          7           0        0.025087   -2.557963    0.676803
      3          6           0        1.759370   -1.013983    0.213723
      4          6           0        1.407300    0.367469    0.504041
      5          6           0        3.025806   -0.995066   -0.370588
      6          6           0        2.488461    1.136901    0.027082
      7          6           0        0.374126    1.035489    1.170796
      8          6           0        2.547193    2.520294    0.148542
      9          6           0        0.427467    2.411953    1.301876
     10          1           0       -0.461241    0.496265    1.591094
     11          6           0        1.497121    3.152397    0.788533
     12          1           0        3.390627    3.082692   -0.231137
     13          1           0       -0.376912    2.925514    1.814439
     14          1           0        1.510086    4.229210    0.903559
     15          6           0       -1.060884   -1.674679    0.452747
     16          6           0       -2.062671   -1.619150    1.417688
     17          6           0       -1.235169   -1.026351   -0.774578
     18          6           0       -3.205857   -0.872414    1.185562
     19          1           0       -1.931732   -2.160964    2.345488
     20          6           0       -2.384646   -0.302908   -1.017581
     21          1           0       -0.469651   -1.100843   -1.535656
     22          6           0       -3.357305   -0.220827   -0.027323
     23          1           0       -3.988350   -0.798742    1.929916
     24          1           0       -2.533018    0.200601   -1.962763
     25          7           0        3.437882    0.286303   -0.518302
     26          6           0        4.682599    0.739847   -1.111268
     27          1           0        4.478100    1.493216   -1.872209
     28          1           0        5.337236    1.168602   -0.350645
     29          1           0        5.189300   -0.097709   -1.581224
     30          6           0        3.839872   -2.158511   -0.806072
     31          1           0        4.851122   -2.106370   -0.398096
     32          1           0        3.361306   -3.071066   -0.460078
     33          1           0        3.919841   -2.203150   -1.895180
     34          8           0       -5.036440    0.489365   -1.520801
     35          8           0       -4.394399    1.662804   -0.990221
     36          7           0       -4.583372    0.516275   -0.175978
 ---------------------------------------------------------------------
 Rotational constants (GHZ):           0.5123568           0.1805818           0.1523277
 Leave Link  202 at Thu Feb 13 13:40:21 2025, MaxMem= 25501368320 cpu:               0.2 elap:               0.0
 (Enter /share/Apps/gaussian/g16/l301.exe)
 Standard basis: 6-311G(d,p) (5D, 7F)
 Ernie: Thresh=  0.10000D-02 Tol=  0.10000D-05 Strict=F.
 There are   502 symmetry adapted cartesian basis functions of A   symmetry.
 There are   480 symmetry adapted basis functions of A   symmetry.
   480 basis functions,   816 primitive gaussians,   502 cartesian basis functions
    77 alpha electrons       77 beta electrons
       nuclear repulsion energy      1713.1627722061 Hartrees.
 IExCor=20419 DFT=T Ex+Corr=CAM-B3LYP ExCW=0 ScaHFX=  1.000000
 ScaDFX=  1.000000  1.000000  1.000000  0.810000 ScalE2=  1.000000  1.000000
 IRadAn=      5 IRanWt=     -1 IRanGd=            0 ICorTp=0 IEmpDi=  4
 HFx  wShort=  0.000000 wLong=  0.330000 cFull=  0.190000 cShort=  0.000000 cLong=  0.460000
 DFx  wShort=  0.000000 wLong=  0.330000 cFull=  0.190000 cShort=  0.000000 cLong=  0.460000
 NAtoms=   36 NActive=   36 NUniq=   36 SFac= 1.00D+00 NAtFMM=   60 NAOKFM=F Big=F
 Integral buffers will be    131072 words long.
 Raffenetti 1 integral format.
 Two-electron integral symmetry is turned on.
 ------------------------------------------------------------------------------
 Polarizable Continuum Model (PCM)
 =================================
 Model                : PCM.
 Atomic radii         : UFF (Universal Force Field).
 Polarization charges : Total charges.
 Charge compensation  : None.
 Solution method      : On-the-fly selection.
 Cavity type          : Scaled VdW (van der Waals Surface) (Alpha=1.100).
 Cavity algorithm     : GePol (No added spheres)
                        Default sphere list used, NSphG=   36.
                        Lebedev-Laikov grids with approx.  5.0 points / Ang**2.
                        Smoothing algorithm: York/Karplus (Gamma=1.0000).
                        Polarization charges: spherical gaussians, with
                                              point-specific exponents (IZeta= 3).
                        Self-potential: point-specific (ISelfS= 7).
                        Self-field    : sphere-specific E.n sum rule (ISelfD= 2).
 Solvent              : Acetonitrile, Eps=  35.688000 Eps(inf)=   1.806874
 ------------------------------------------------------------------------------
 GePol: Number of generator spheres                  =      36
 GePol: Total number of spheres                      =      36
 GePol: Number of exposed spheres                    =      36 (100.00%)
 GePol: Number of points                             =    2691
 GePol: Average weight of points                     =       0.13
 GePol: Minimum weight of points                     =   0.47D-09
 GePol: Maximum weight of points                     =    0.20577
 GePol: Number of points with low weight             =     160
 GePol: Fraction of low-weight points (<1% of avg)   =       5.95%
 GePol: Cavity surface area                          =    354.113 Ang**2
 GePol: Cavity volume                                =    392.543 Ang**3
 Leave Link  301 at Thu Feb 13 13:40:21 2025, MaxMem= 25501368320 cpu:               2.6 elap:               0.1
 (Enter /share/Apps/gaussian/g16/l302.exe)
 NPDir=0 NMtPBC=     1 NCelOv=     1 NCel=       1 NClECP=     1 NCelD=      1
         NCelK=      1 NCelE2=     1 NClLst=     1 CellRange=     0.0.
 One-electron integrals computed using PRISM.
 One-electron integral symmetry used in STVInt
 NBasis=   480 RedAO= T EigKep=  1.22D-04  NBF=   480
 NBsUse=   480 1.00D-06 EigRej= -1.00D+00 NBFU=   480
 Precomputing XC quadrature grid using
 IXCGrd= 4 IRadAn=           5 IRanWt=          -1 IRanGd=           0 AccXCQ= 0.00D+00.
 Generated NRdTot=       0 NPtTot=           0 NUsed=           0 NTot=          32
 NSgBfM=   502   502   502   502   502 MxSgAt=    36 MxSgA2=    36.
 Leave Link  302 at Thu Feb 13 13:40:21 2025, MaxMem= 25501368320 cpu:              12.3 elap:               0.4
 (Enter /share/Apps/gaussian/g16/l303.exe)
 DipDrv:  MaxL=1.
 Leave Link  303 at Thu Feb 13 13:40:21 2025, MaxMem= 25501368320 cpu:               1.5 elap:               0.1
 (Enter /share/Apps/gaussian/g16/l308.exe)
 Leave Link  308 at Thu Feb 13 13:40:22 2025, MaxMem= 25501368320 cpu:               3.3 elap:               0.1
 (Enter /share/Apps/gaussian/g16/l401.exe)
 ExpMin= 1.03D-01 ExpMax= 8.59D+03 ExpMxC= 1.30D+03 IAcc=3 IRadAn=         5 AccDes= 0.00D+00
 Harris functional with IExCor=20419 and IRadAn=       5 diagonalized for initial guess.
 HarFok:  IExCor=20419 AccDes= 0.00D+00 IRadAn=         5 IDoV= 1 UseB2=F ITyADJ=14
 ICtDFT=  3500011 ScaDFX=  1.000000  1.000000  1.000000  1.000000
 FoFCou: FMM=F IPFlag=           0 FMFlag=      100000 FMFlg1=           0
         NFxFlg=           0 DoJE=T BraDBF=F KetDBF=T FulRan=T
         wScrn=  0.000000 ICntrl=       500 IOpCl=  0 I1Cent=   200000004 NGrid=           0
         NMat0=    1 NMatS0=      1 NMatT0=    0 NMatD0=    1 NMtDS0=    0 NMtDT0=    0
 Petite list used in FoFCou.
 Harris En= -949.771243459295    
 JPrj=0 DoOrth=F DoCkMO=F.
 Leave Link  401 at Thu Feb 13 13:40:22 2025, MaxMem= 25501368320 cpu:              25.5 elap:               0.8
 (Enter /share/Apps/gaussian/g16/l502.exe)
 Integral symmetry usage will be decided dynamically.
 Closed shell SCF:
 Using DIIS extrapolation, IDIIS=  1040.
 NGot= 25501368320 LenX= 25500840472 LenY= 25500587966
 Requested convergence on RMS density matrix=1.00D-08 within 128 cycles.
 Requested convergence on MAX density matrix=1.00D-06.
 Requested convergence on             energy=1.00D-06.
 No special actions if energy rises.
 Fock matrices will be formed incrementally for  20 cycles.

 Cycle   1  Pass 1  IDiag  1:
 FoFJK:  IHMeth= 1 ICntrl=       0 DoSepK=T KAlg= 0 I1Cent=           0 FoldK=F
 IRaf=         1 NMat=       1 IRICut=       1 DoRegI=T DoRafI=F ISym2E= 0 IDoP0=0 IntGTp=1.
 FoFCou: FMM=F IPFlag=           0 FMFlag=      100000 FMFlg1=           0
         NFxFlg=           0 DoJE=T BraDBF=F KetDBF=F FulRan=T
         wScrn=  0.000000 ICntrl=       500 IOpCl=  0 I1Cent=           0 NGrid=           0
         NMat0=    1 NMatS0=      1 NMatT0=    0 NMatD0=    1 NMtDS0=    0 NMtDT0=    0
 Symmetry not used in FoFCou.
 Inv3:  Mode=1 IEnd=    21724443.
 Iteration    1 A*A^-1 deviation from unit magnitude is 3.77D-15 for   1980.
 Iteration    1 A*A^-1 deviation from orthogonality  is 1.87D-15 for   1779    224.
 Iteration    1 A^-1*A deviation from unit magnitude is 3.33D-15 for   1980.
 Iteration    1 A^-1*A deviation from orthogonality  is 3.32D-15 for   1985    832.
 E= -986.595259805224    
 DIIS: error= 6.93D-02 at cycle   1 NSaved=   1.
 NSaved= 1 IEnMin= 1 EnMin= -986.595259805224     IErMin= 1 ErrMin= 6.93D-02
 ErrMax= 6.93D-02  0.00D+00 EMaxC= 1.00D-01 BMatC= 1.93D+00 BMatP= 1.93D+00
 IDIUse=3 WtCom= 3.07D-01 WtEn= 6.93D-01
 Coeff-Com:  0.100D+01
 Coeff-En:   0.100D+01
 Coeff:      0.100D+01
 Gap=     0.474 Goal=   None    Shift=    0.000
 GapD=    0.474 DampG=2.000 DampE=0.500 DampFc=1.0000 IDamp=-1.
 RMSDP=3.15D-03 MaxDP=1.83D-01              OVMax= 2.15D-01

 Cycle   2  Pass 1  IDiag  1:
 RMSU=  2.99D-03    CP:  8.99D-01
 E= -986.636444185519     Delta-E=       -0.041184380295 Rises=F Damp=F
 DIIS: error= 4.01D-02 at cycle   2 NSaved=   2.
 NSaved= 2 IEnMin= 2 EnMin= -986.636444185519     IErMin= 2 ErrMin= 4.01D-02
 ErrMax= 4.01D-02  0.00D+00 EMaxC= 1.00D-01 BMatC= 5.46D-01 BMatP= 1.93D+00
 IDIUse=3 WtCom= 5.99D-01 WtEn= 4.01D-01
 Coeff-Com:  0.305D+00 0.695D+00
 Coeff-En:   0.474D+00 0.526D+00
 Coeff:      0.373D+00 0.627D+00
 Gap=     0.394 Goal=   None    Shift=    0.000
 RMSDP=1.68D-03 MaxDP=9.16D-02 DE=-4.12D-02 OVMax= 1.42D-01

 Cycle   3  Pass 1  IDiag  1:
 RMSU=  8.99D-04    CP:  9.41D-01  5.47D-01
 E= -987.012718065015     Delta-E=       -0.376273879496 Rises=F Damp=F
 DIIS: error= 1.12D-02 at cycle   3 NSaved=   3.
 NSaved= 3 IEnMin= 3 EnMin= -987.012718065015     IErMin= 3 ErrMin= 1.12D-02
 ErrMax= 1.12D-02  0.00D+00 EMaxC= 1.00D-01 BMatC= 6.82D-02 BMatP= 5.46D-01
 IDIUse=3 WtCom= 8.88D-01 WtEn= 1.12D-01
 Coeff-Com:  0.288D-01 0.265D+00 0.706D+00
 Coeff-En:   0.000D+00 0.458D-01 0.954D+00
 Coeff:      0.255D-01 0.241D+00 0.734D+00
 Gap=     0.235 Goal=   None    Shift=    0.000
 RMSDP=6.04D-04 MaxDP=3.25D-02 DE=-3.76D-01 OVMax= 5.16D-02

 Cycle   4  Pass 1  IDiag  1:
 RMSU=  2.70D-04    CP:  9.24D-01  6.95D-01  7.08D-01
 E= -987.065439133714     Delta-E=       -0.052721068699 Rises=F Damp=F
 DIIS: error= 4.28D-03 at cycle   4 NSaved=   4.
 NSaved= 4 IEnMin= 4 EnMin= -987.065439133714     IErMin= 4 ErrMin= 4.28D-03
 ErrMax= 4.28D-03  0.00D+00 EMaxC= 1.00D-01 BMatC= 5.61D-03 BMatP= 6.82D-02
 IDIUse=3 WtCom= 9.57D-01 WtEn= 4.28D-02
 Coeff-Com:  0.745D-02 0.989D-01 0.357D+00 0.537D+00
 Coeff-En:   0.000D+00 0.000D+00 0.000D+00 0.100D+01
 Coeff:      0.713D-02 0.947D-01 0.342D+00 0.556D+00
 Gap=     0.220 Goal=   None    Shift=    0.000
 RMSDP=1.43D-04 MaxDP=1.16D-02 DE=-5.27D-02 OVMax= 1.51D-02

 Cycle   5  Pass 1  IDiag  1:
 RMSU=  8.56D-05    CP:  9.24D-01  6.93D-01  8.00D-01  7.05D-01
 E= -987.069963002965     Delta-E=       -0.004523869251 Rises=F Damp=F
 DIIS: error= 1.01D-03 at cycle   5 NSaved=   5.
 NSaved= 5 IEnMin= 5 EnMin= -987.069963002965     IErMin= 5 ErrMin= 1.01D-03
 ErrMax= 1.01D-03  0.00D+00 EMaxC= 1.00D-01 BMatC= 2.77D-04 BMatP= 5.61D-03
 IDIUse=3 WtCom= 9.90D-01 WtEn= 1.01D-02
 Coeff-Com: -0.960D-03-0.153D-02 0.226D-01 0.197D+00 0.783D+00
 Coeff-En:   0.000D+00 0.000D+00 0.000D+00 0.000D+00 0.100D+01
 Coeff:     -0.950D-03-0.152D-02 0.224D-01 0.195D+00 0.785D+00
 Gap=     0.220 Goal=   None    Shift=    0.000
 RMSDP=4.25D-05 MaxDP=2.14D-03 DE=-4.52D-03 OVMax= 6.17D-03

 Cycle   6  Pass 1  IDiag  1:
 RMSU=  3.50D-05    CP:  9.24D-01  6.94D-01  8.13D-01  7.71D-01  8.70D-01
 E= -987.070236362796     Delta-E=       -0.000273359831 Rises=F Damp=F
 DIIS: error= 2.77D-04 at cycle   6 NSaved=   6.
 NSaved= 6 IEnMin= 6 EnMin= -987.070236362796     IErMin= 6 ErrMin= 2.77D-04
 ErrMax= 2.77D-04  0.00D+00 EMaxC= 1.00D-01 BMatC= 5.65D-05 BMatP= 2.77D-04
 IDIUse=3 WtCom= 9.97D-01 WtEn= 2.77D-03
 Coeff-Com: -0.121D-02-0.115D-01-0.271D-01 0.380D-01 0.402D+00 0.600D+00
 Coeff-En:   0.000D+00 0.000D+00 0.000D+00 0.000D+00 0.000D+00 0.100D+01
 Coeff:     -0.121D-02-0.115D-01-0.270D-01 0.379D-01 0.401D+00 0.601D+00
 Gap=     0.221 Goal=   None    Shift=    0.000
 RMSDP=2.10D-05 MaxDP=9.77D-04 DE=-2.73D-04 OVMax= 3.01D-03

 Cycle   7  Pass 1  IDiag  1:
 RMSU=  1.01D-05    CP:  9.23D-01  6.96D-01  8.11D-01  8.02D-01  1.02D+00
                    CP:  7.94D-01
 E= -987.070296250704     Delta-E=       -0.000059887908 Rises=F Damp=F
 DIIS: error= 7.16D-05 at cycle   7 NSaved=   7.
 NSaved= 7 IEnMin= 7 EnMin= -987.070296250704     IErMin= 7 ErrMin= 7.16D-05
 ErrMax= 7.16D-05  0.00D+00 EMaxC= 1.00D-01 BMatC= 2.86D-06 BMatP= 5.65D-05
 IDIUse=1 WtCom= 1.00D+00 WtEn= 0.00D+00
 Coeff-Com: -0.405D-03-0.458D-02-0.131D-01-0.532D-02 0.831D-01 0.216D+00
 Coeff-Com:  0.724D+00
 Coeff:     -0.405D-03-0.458D-02-0.131D-01-0.532D-02 0.831D-01 0.216D+00
 Coeff:      0.724D+00
 Gap=     0.221 Goal=   None    Shift=    0.000
 RMSDP=6.01D-06 MaxDP=2.82D-04 DE=-5.99D-05 OVMax= 1.19D-03

 Cycle   8  Pass 1  IDiag  1:
 RMSU=  3.91D-06    CP:  9.23D-01  6.96D-01  8.13D-01  8.05D-01  1.04D+00
                    CP:  9.03D-01  1.04D+00
 E= -987.070301019855     Delta-E=       -0.000004769151 Rises=F Damp=F
 DIIS: error= 4.13D-05 at cycle   8 NSaved=   8.
 NSaved= 8 IEnMin= 8 EnMin= -987.070301019855     IErMin= 8 ErrMin= 4.13D-05
 ErrMax= 4.13D-05  0.00D+00 EMaxC= 1.00D-01 BMatC= 9.09D-07 BMatP= 2.86D-06
 IDIUse=1 WtCom= 1.00D+00 WtEn= 0.00D+00
 Coeff-Com:  0.552D-04 0.247D-03-0.774D-03-0.136D-01-0.538D-01-0.301D-01
 Coeff-Com:  0.383D+00 0.715D+00
 Coeff:      0.552D-04 0.247D-03-0.774D-03-0.136D-01-0.538D-01-0.301D-01
 Coeff:      0.383D+00 0.715D+00
 Gap=     0.221 Goal=   None    Shift=    0.000
 RMSDP=3.77D-06 MaxDP=1.32D-04 DE=-4.77D-06 OVMax= 9.16D-04

 Cycle   9  Pass 1  IDiag  1:
 RMSU=  1.92D-06    CP:  9.23D-01  6.96D-01  8.13D-01  8.09D-01  1.07D+00
                    CP:  9.43D-01  1.24D+00  9.28D-01
 E= -987.070302595683     Delta-E=       -0.000001575828 Rises=F Damp=F
 DIIS: error= 1.04D-05 at cycle   9 NSaved=   9.
 NSaved= 9 IEnMin= 9 EnMin= -987.070302595683     IErMin= 9 ErrMin= 1.04D-05
 ErrMax= 1.04D-05  0.00D+00 EMaxC= 1.00D-01 BMatC= 1.18D-07 BMatP= 9.09D-07
 IDIUse=1 WtCom= 1.00D+00 WtEn= 0.00D+00
 Coeff-Com:  0.747D-04 0.729D-03 0.127D-02-0.620D-02-0.356D-01-0.415D-01
 Coeff-Com:  0.820D-01 0.334D+00 0.666D+00
 Coeff:      0.747D-04 0.729D-03 0.127D-02-0.620D-02-0.356D-01-0.415D-01
 Coeff:      0.820D-01 0.334D+00 0.666D+00
 Gap=     0.221 Goal=   None    Shift=    0.000
 RMSDP=1.42D-06 MaxDP=6.00D-05 DE=-1.58D-06 OVMax= 2.98D-04

 Cycle  10  Pass 1  IDiag  1:
 RMSU=  8.99D-07    CP:  9.23D-01  6.96D-01  8.13D-01  8.10D-01  1.07D+00
                    CP:  9.50D-01  1.30D+00  1.09D+00  1.07D+00
 E= -987.070302807248     Delta-E=       -0.000000211565 Rises=F Damp=F
 DIIS: error= 8.26D-06 at cycle  10 NSaved=  10.
 NSaved=10 IEnMin=10 EnMin= -987.070302807248     IErMin=10 ErrMin= 8.26D-06
 ErrMax= 8.26D-06  0.00D+00 EMaxC= 1.00D-01 BMatC= 1.41D-08 BMatP= 1.18D-07
 IDIUse=1 WtCom= 1.00D+00 WtEn= 0.00D+00
 Coeff-Com:  0.137D-04 0.199D-03 0.512D-03 0.593D-03 0.736D-03-0.542D-02
 Coeff-Com: -0.562D-01-0.311D-01 0.199D+00 0.892D+00
 Coeff:      0.137D-04 0.199D-03 0.512D-03 0.593D-03 0.736D-03-0.542D-02
 Coeff:     -0.562D-01-0.311D-01 0.199D+00 0.892D+00
 Gap=     0.221 Goal=   None    Shift=    0.000
 RMSDP=7.63D-07 MaxDP=2.66D-05 DE=-2.12D-07 OVMax= 2.51D-04

 Cycle  11  Pass 1  IDiag  1:
 RMSU=  3.42D-07    CP:  9.23D-01  6.96D-01  8.13D-01  8.10D-01  1.07D+00
                    CP:  9.57D-01  1.33D+00  1.17D+00  1.31D+00  1.08D+00
 E= -987.070302860735     Delta-E=       -0.000000053486 Rises=F Damp=F
 DIIS: error= 2.32D-06 at cycle  11 NSaved=  11.
 NSaved=11 IEnMin=11 EnMin= -987.070302860735     IErMin=11 ErrMin= 2.32D-06
 ErrMax= 2.32D-06  0.00D+00 EMaxC= 1.00D-01 BMatC= 4.05D-09 BMatP= 1.41D-08
 IDIUse=1 WtCom= 1.00D+00 WtEn= 0.00D+00
 Coeff-Com: -0.857D-05-0.682D-04-0.825D-04 0.121D-02 0.668D-02 0.672D-02
 Coeff-Com: -0.306D-01-0.602D-01-0.101D+00 0.320D+00 0.857D+00
 Coeff:     -0.857D-05-0.682D-04-0.825D-04 0.121D-02 0.668D-02 0.672D-02
 Coeff:     -0.306D-01-0.602D-01-0.101D+00 0.320D+00 0.857D+00
 Gap=     0.221 Goal=   None    Shift=    0.000
 RMSDP=3.65D-07 MaxDP=1.21D-05 DE=-5.35D-08 OVMax= 9.47D-05

 Cycle  12  Pass 1  IDiag  1:
 RMSU=  1.56D-07    CP:  9.23D-01  6.96D-01  8.13D-01  8.10D-01  1.07D+00
                    CP:  9.57D-01  1.33D+00  1.20D+00  1.41D+00  1.30D+00
                    CP:  1.24D+00
 E= -987.070302871788     Delta-E=       -0.000000011053 Rises=F Damp=F
 DIIS: error= 1.01D-06 at cycle  12 NSaved=  12.
 NSaved=12 IEnMin=12 EnMin= -987.070302871788     IErMin=12 ErrMin= 1.01D-06
 ErrMax= 1.01D-06  0.00D+00 EMaxC= 1.00D-01 BMatC= 6.73D-10 BMatP= 4.05D-09
 IDIUse=1 WtCom= 1.00D+00 WtEn= 0.00D+00
 Coeff-Com: -0.565D-05-0.584D-04-0.106D-03 0.375D-03 0.244D-02 0.376D-02
 Coeff-Com: -0.240D-02-0.157D-01-0.857D-01 0.516D-02 0.345D+00 0.747D+00
 Coeff:     -0.565D-05-0.584D-04-0.106D-03 0.375D-03 0.244D-02 0.376D-02
 Coeff:     -0.240D-02-0.157D-01-0.857D-01 0.516D-02 0.345D+00 0.747D+00
 Gap=     0.221 Goal=   None    Shift=    0.000
 RMSDP=1.38D-07 MaxDP=4.01D-06 DE=-1.11D-08 OVMax= 3.67D-05

 Cycle  13  Pass 1  IDiag  1:
 RMSU=  5.83D-08    CP:  9.23D-01  6.96D-01  8.13D-01  8.10D-01  1.07D+00
                    CP:  9.57D-01  1.34D+00  1.21D+00  1.44D+00  1.37D+00
                    CP:  1.45D+00  1.15D+00
 E= -987.070302873536     Delta-E=       -0.000000001748 Rises=F Damp=F
 DIIS: error= 5.97D-07 at cycle  13 NSaved=  13.
 NSaved=13 IEnMin=13 EnMin= -987.070302873536     IErMin=13 ErrMin= 5.97D-07
 ErrMax= 5.97D-07  0.00D+00 EMaxC= 1.00D-01 BMatC= 1.47D-10 BMatP= 6.73D-10
 IDIUse=1 WtCom= 1.00D+00 WtEn= 0.00D+00
 Coeff-Com: -0.676D-06-0.116D-04-0.295D-04-0.104D-03-0.454D-03 0.180D-03
 Coeff-Com:  0.503D-02 0.632D-02-0.212D-01-0.563D-01-0.375D-01 0.307D+00
 Coeff-Com:  0.797D+00
 Coeff:     -0.676D-06-0.116D-04-0.295D-04-0.104D-03-0.454D-03 0.180D-03
 Coeff:      0.503D-02 0.632D-02-0.212D-01-0.563D-01-0.375D-01 0.307D+00
 Coeff:      0.797D+00
 Gap=     0.221 Goal=   None    Shift=    0.000
 RMSDP=7.50D-08 MaxDP=2.43D-06 DE=-1.75D-09 OVMax= 1.98D-05

 Cycle  14  Pass 1  IDiag  1:
 RMSU=  2.75D-08    CP:  9.23D-01  6.96D-01  8.13D-01  8.10D-01  1.07D+00
                    CP:  9.57D-01  1.34D+00  1.22D+00  1.45D+00  1.40D+00
                    CP:  1.57D+00  1.35D+00  1.22D+00
 E= -987.070302873906     Delta-E=       -0.000000000370 Rises=F Damp=F
 DIIS: error= 4.25D-07 at cycle  14 NSaved=  14.
 NSaved=14 IEnMin=14 EnMin= -987.070302873906     IErMin=14 ErrMin= 4.25D-07
 ErrMax= 4.25D-07  0.00D+00 EMaxC= 1.00D-01 BMatC= 5.21D-11 BMatP= 1.47D-10
 IDIUse=1 WtCom= 1.00D+00 WtEn= 0.00D+00
 Coeff-Com:  0.685D-06 0.362D-05-0.424D-06-0.142D-03-0.770D-03-0.627D-03
 Coeff-Com:  0.345D-02 0.708D-02 0.380D-02-0.337D-01-0.970D-01 0.303D-01
 Coeff-Com:  0.474D+00 0.613D+00
 Coeff:      0.685D-06 0.362D-05-0.424D-06-0.142D-03-0.770D-03-0.627D-03
 Coeff:      0.345D-02 0.708D-02 0.380D-02-0.337D-01-0.970D-01 0.303D-01
 Coeff:      0.474D+00 0.613D+00
 Gap=     0.221 Goal=   None    Shift=    0.000
 RMSDP=3.17D-08 MaxDP=1.09D-06 DE=-3.70D-10 OVMax= 7.21D-06

 Cycle  15  Pass 1  IDiag  1:
 RMSU=  1.35D-08    CP:  9.23D-01  6.96D-01  8.13D-01  8.10D-01  1.07D+00
                    CP:  9.57D-01  1.34D+00  1.22D+00  1.46D+00  1.42D+00
                    CP:  1.61D+00  1.44D+00  1.41D+00  1.10D+00
 E= -987.070302874007     Delta-E=       -0.000000000100 Rises=F Damp=F
 DIIS: error= 1.07D-07 at cycle  15 NSaved=  15.
 NSaved=15 IEnMin=15 EnMin= -987.070302874007     IErMin=15 ErrMin= 1.07D-07
 ErrMax= 1.07D-07  0.00D+00 EMaxC= 1.00D-01 BMatC= 5.37D-12 BMatP= 5.21D-11
 IDIUse=1 WtCom= 1.00D+00 WtEn= 0.00D+00
 Coeff-Com:  0.365D-06 0.354D-05 0.467D-05-0.259D-04-0.151D-03-0.234D-03
 Coeff-Com:  0.135D-04 0.108D-02 0.650D-02 0.215D-02-0.279D-01-0.571D-01
 Coeff-Com: -0.118D-01 0.222D+00 0.865D+00
 Coeff:      0.365D-06 0.354D-05 0.467D-05-0.259D-04-0.151D-03-0.234D-03
 Coeff:      0.135D-04 0.108D-02 0.650D-02 0.215D-02-0.279D-01-0.571D-01
 Coeff:     -0.118D-01 0.222D+00 0.865D+00
 Gap=     0.221 Goal=   None    Shift=    0.000
 RMSDP=1.61D-08 MaxDP=6.18D-07 DE=-1.00D-10 OVMax= 3.27D-06

 Cycle  16  Pass 1  IDiag  1:
 RMSU=  5.40D-09    CP:  9.23D-01  6.96D-01  8.13D-01  8.10D-01  1.07D+00
                    CP:  9.57D-01  1.34D+00  1.22D+00  1.46D+00  1.42D+00
                    CP:  1.63D+00  1.49D+00  1.53D+00  1.35D+00  1.27D+00
 E= -987.070302874036     Delta-E=       -0.000000000029 Rises=F Damp=F
 DIIS: error= 3.88D-08 at cycle  16 NSaved=  16.
 NSaved=16 IEnMin=16 EnMin= -987.070302874036     IErMin=16 ErrMin= 3.88D-08
 ErrMax= 3.88D-08  0.00D+00 EMaxC= 1.00D-01 BMatC= 1.02D-12 BMatP= 5.37D-12
 IDIUse=1 WtCom= 1.00D+00 WtEn= 0.00D+00
 Coeff-Com:  0.148D-07 0.105D-05 0.295D-05 0.166D-04 0.791D-04 0.179D-04
 Coeff-Com: -0.619D-03-0.914D-03 0.196D-02 0.640D-02 0.636D-02-0.273D-01
 Coeff-Com: -0.890D-01-0.269D-01 0.319D+00 0.811D+00
 Coeff:      0.148D-07 0.105D-05 0.295D-05 0.166D-04 0.791D-04 0.179D-04
 Coeff:     -0.619D-03-0.914D-03 0.196D-02 0.640D-02 0.636D-02-0.273D-01
 Coeff:     -0.890D-01-0.269D-01 0.319D+00 0.811D+00
 Gap=     0.221 Goal=   None    Shift=    0.000
 RMSDP=7.27D-09 MaxDP=2.65D-07 DE=-2.93D-11 OVMax= 1.52D-06

 Error on total polarization charges =  0.01251
 SCF Done:  E(RCAM-B3LYP) =  -987.070302874     A.U. after   16 cycles
            NFock= 16  Conv=0.73D-08     -V/T= 2.0029
 KE= 9.842090332340D+02 PE=-5.728132823047D+03 EE= 2.043690714733D+03
 Leave Link  502 at Thu Feb 13 13:41:10 2025, MaxMem= 25501368320 cpu:            1680.3 elap:              47.7
 (Enter /share/Apps/gaussian/g16/l801.exe)
 DoSCS=F DFT=T ScalE2(SS,OS)=  1.000000  1.000000
 ExpMin= 1.03D-01 ExpMax= 8.59D+03 ExpMxC= 1.30D+03 IAcc=3 IRadAn=         5 AccDes= 0.00D+00
 HarFok:  IExCor=  205 AccDes= 0.00D+00 IRadAn=         5 IDoV=-2 UseB2=F ITyADJ=14
 ICtDFT= 12500011 ScaDFX=  1.000000  1.000000  1.000000  1.000000
 GSVD:  LWork=        -660 too small for GESVD, short by        2750 words or        2750 for optimal perf.
 Largest valence mixing into a core orbital is  5.55D-05
 Largest core mixing into a valence orbital is  1.79D-05
 Range of M.O.s used for correlation:    23   480
 NBasis=   480 NAE=    77 NBE=    77 NFC=    22 NFV=     0
 NROrb=    458 NOA=    55 NOB=    55 NVA=   403 NVB=   403

 **** Warning!!: The largest alpha MO coefficient is  0.17977552D+02

 Leave Link  801 at Thu Feb 13 13:41:11 2025, MaxMem= 25501368320 cpu:              15.5 elap:               0.6
 (Enter /share/Apps/gaussian/g16/l914.exe)
 RHF ground state
 Two-electron integrals replicated using symmetry.
 MDV= 25501368320 DFT=T DoStab=F Mixed=T DoRPA=T DoScal=F NonHer=T
 NEqPCM:  Using non-equilibrium solvation (IEInf=1, Eps=  35.6880, EpsInf=   1.8069)
 Inv3:  Mode=1 IEnd=    21724443.
 Iteration    1 A*A^-1 deviation from unit magnitude is 4.00D-15 for    208.
 Iteration    1 A*A^-1 deviation from orthogonality  is 2.46D-15 for   2352    801.
 Iteration    1 A^-1*A deviation from unit magnitude is 3.44D-15 for    741.
 Iteration    1 A^-1*A deviation from orthogonality  is 1.91D-15 for   2391    785.
 Making orbital integer symmetry assigments:
 Orbital symmetries:
       Occupied  (A) (A) (A) (A) (A) (A) (A) (A) (A) (A) (A) (A)
                 (A) (A) (A) (A) (A) (A) (A) (A) (A) (A) (A) (A)
                 (A) (A) (A) (A) (A) (A) (A) (A) (A) (A) (A) (A)
                 (A) (A) (A) (A) (A) (A) (A) (A) (A) (A) (A) (A)
                 (A) (A) (A) (A) (A) (A) (A) (A) (A) (A) (A) (A)
                 (A) (A) (A) (A) (A) (A) (A) (A) (A) (A) (A) (A)
                 (A) (A) (A) (A) (A)
       Virtual   (A) (A) (A) (A) (A) (A) (A) (A) (A) (A) (A) (A)
                 (A) (A) (A) (A) (A) (A) (A) (A) (A) (A) (A) (A)
                 (A) (A) (A) (A) (A) (A) (A) (A) (A) (A) (A) (A)
                 (A) (A) (A) (A) (A) (A) (A) (A) (A) (A) (A) (A)
                 (A) (A) (A) (A) (A) (A) (A) (A) (A) (A) (A) (A)
                 (A) (A) (A) (A) (A) (A) (A) (A) (A) (A) (A) (A)
                 (A) (A) (A) (A) (A) (A) (A) (A) (A) (A) (A) (A)
                 (A) (A) (A) (A) (A) (A) (A) (A) (A) (A) (A) (A)
                 (A) (A) (A) (A) (A) (A) (A) (A) (A) (A) (A) (A)
                 (A) (A) (A) (A) (A) (A) (A) (A) (A) (A) (A) (A)
                 (A) (A) (A) (A) (A) (A) (A) (A) (A) (A) (A) (A)
                 (A) (A) (A) (A) (A) (A) (A) (A) (A) (A) (A) (A)
                 (A) (A) (A) (A) (A) (A) (A) (A) (A) (A) (A) (A)
                 (A) (A) (A) (A) (A) (A) (A) (A) (A) (A) (A) (A)
                 (A) (A) (A) (A) (A) (A) (A) (A) (A) (A) (A) (A)
                 (A) (A) (A) (A) (A) (A) (A) (A) (A) (A) (A) (A)
                 (A) (A) (A) (A) (A) (A) (A) (A) (A) (A) (A) (A)
                 (A) (A) (A) (A) (A) (A) (A) (A) (A) (A) (A) (A)
                 (A) (A) (A) (A) (A) (A) (A) (A) (A) (A) (A) (A)
                 (A) (A) (A) (A) (A) (A) (A) (A) (A) (A) (A) (A)
                 (A) (A) (A) (A) (A) (A) (A) (A) (A) (A) (A) (A)
                 (A) (A) (A) (A) (A) (A) (A) (A) (A) (A) (A) (A)
                 (A) (A) (A) (A) (A) (A) (A) (A) (A) (A) (A) (A)
                 (A) (A) (A) (A) (A) (A) (A) (A) (A) (A) (A) (A)
                 (A) (A) (A) (A) (A) (A) (A) (A) (A) (A) (A) (A)
                 (A) (A) (A) (A) (A) (A) (A) (A) (A) (A) (A) (A)
                 (A) (A) (A) (A) (A) (A) (A) (A) (A) (A) (A) (A)
                 (A) (A) (A) (A) (A) (A) (A) (A) (A) (A) (A) (A)
                 (A) (A) (A) (A) (A) (A) (A) (A) (A) (A) (A) (A)
                 (A) (A) (A) (A) (A) (A) (A) (A) (A) (A) (A) (A)
                 (A) (A) (A) (A) (A) (A) (A) (A) (A) (A) (A) (A)
                 (A) (A) (A) (A) (A) (A) (A) (A) (A) (A) (A) (A)
                 (A) (A) (A) (A) (A) (A) (A) (A) (A) (A) (A) (A)
                 (A) (A) (A) (A) (A) (A) (A)
    80 initial guesses have been made.
 Convergence on wavefunction:    0.001000000000000
 Davidson Disk Diagonalization:  ConvIn= 1.00D-03 SkipCon=T Conv= 1.00D-03.
 Max sub-space:  2000 roots to seek:    80 dimension of matrix:        44330
 Iteration     1 Dimension    80 NMult     0 NNew     80
 CISAX will form    80 AO SS matrices at one time.
 NMat=    80 NSing=    80 JSym2X= 0.
 FoFJK:  IHMeth= 1 ICntrl=       0 DoSepK=T KAlg= 0 I1Cent=           0 FoldK=F
 IRaf=         1 NMat=     160 IRICut=       1 DoRegI=T DoRafI=F ISym2E= 0 IDoP0=3 IntGTp=3.
 New state      2 was old state      3
 New state      3 was old state      2
 New state      4 was old state     71
 New state      5 was old state      8
 New state      6 was old state      5
 New state      8 was old state      4
 New state      9 was old state      6
 New state     10 was old state     11
 New state     11 was old state     45
 New state     12 was old state     21
 New state     13 was old state     17
 New state     14 was old state     13
 New state     15 was old state     10
 New state     16 was old state      9
 New state     17 was old state     15
 New state     18 was old state     20
 New state     19 was old state     66
 New state     20 was old state     22
 Excitation Energies [eV] at current iteration:
 Root      1 :     3.010873057411433
 Root      2 :     4.304483898107057
 Root      3 :     4.715572209077332
 Root      4 :     4.847321593927173
 Root      5 :     4.900107493348085
 Root      6 :     5.250263482911257
 Root      7 :     5.288105303650021
 Root      8 :     5.295111559230635
 Root      9 :     5.538446909007971
 Root     10 :     5.614866600001901
 Root     11 :     5.791337571830126
 Root     12 :     5.849695914556769
 Root     13 :     6.021290484974354
 Root     14 :     6.152506276910800
 Root     15 :     6.210182765553534
 Root     16 :     6.250907484014248
 Root     17 :     6.365722056262842
 Root     18 :     6.477239834450338
 Root     19 :     6.522208993809687
 Root     20 :     6.563635621828239
 Root     21 :     6.578439946560683
 Root     22 :     6.663116504711414
 Root     23 :     6.867535418080839
 Root     24 :     6.979102336584404
 Root     25 :     7.137579884941598
 Root     26 :     7.159010401180379
 Root     27 :     7.306684592580820
 Root     28 :     7.354016778672874
 Root     29 :     7.431175043614838
 Root     30 :     7.444506290237794
 Root     31 :     7.485201169505137
 Root     32 :     7.522421296848825
 Root     33 :     7.539575047597833
 Root     34 :     7.586659964049499
 Root     35 :     7.609069927683030
 Root     36 :     7.691381037340008
 Root     37 :     7.708259486429662
 Root     38 :     7.729758015576939
 Root     39 :     7.820301087495962
 Root     40 :     7.863760439723781
 Root     41 :     7.933735795721001
 Root     42 :     7.991764269885862
 Root     43 :     8.020553804014535
 Root     44 :     8.042451165116169
 Root     45 :     8.090520246273398
 Root     46 :     8.146879625893645
 Root     47 :     8.158874360082375
 Root     48 :     8.191968227606390
 Root     49 :     8.226071965393318
 Root     50 :     8.242798145007038
 Root     51 :     8.273007816731001
 Root     52 :     8.322623294437978
 Root     53 :     8.400081770520723
 Root     54 :     8.446626804447259
 Root     55 :     8.482975806980669
 Root     56 :     8.571763429401289
 Root     57 :     8.616263456498798
 Root     58 :     8.650681157020500
 Root     59 :     8.704979050999869
 Root     60 :     8.765383273567725
 Root     61 :     8.811562423603762
 Root     62 :     8.829662133130194
 Root     63 :     8.871157882801006
 Root     64 :     8.912606374179861
 Root     65 :     8.971587569280555
 Root     66 :     9.052410369728074
 Root     67 :     9.099855063182229
 Root     68 :     9.121920345951914
 Root     69 :     9.129099717384246
 Root     70 :     9.130285529951088
 Root     71 :     9.190726369068742
 Root     72 :     9.224160220120716
 Root     73 :     9.226069652263359
 Root     74 :     9.286667186270575
 Root     75 :     9.302118131406241
 Root     76 :     9.378762123492901
 Root     77 :     9.427983072697806
 Root     78 :     9.512886971390621
 Root     79 :     9.568754557770832
 Root     80 :     9.660990834670910
 Iteration     2 Dimension   120 NMult    80 NNew     40
 CISAX will form    40 AO SS matrices at one time.
 NMat=    40 NSing=    40 JSym2X= 0.
 Root      1 not converged, maximum delta is    0.028482443488211
 Root      2 not converged, maximum delta is    0.114184282664943
 Root      3 not converged, maximum delta is    0.043117234752287
 Root      4 not converged, maximum delta is    0.115121992505175
 Root      5 not converged, maximum delta is    0.077530052554097
 Root      6 not converged, maximum delta is    0.231615284858745
 Root      7 not converged, maximum delta is    0.115854063778399
 Root      8 not converged, maximum delta is    0.184012392006371
 New state      9 was old state     10
 Root      9 not converged, maximum delta is    0.214511196823581
 New state     10 was old state      9
 Root     10 not converged, maximum delta is    0.065054885100569
 New state     11 was old state     12
 Root     11 not converged, maximum delta is    0.245829141407079
 New state     12 was old state     11
 Root     12 not converged, maximum delta is    0.249431493114715
 Root     13 not converged, maximum delta is    0.148470922090920
 Root     14 not converged, maximum delta is    0.184021380710708
 New state     15 was old state     18
 Root     15 not converged, maximum delta is    0.327738978415368
 New state     16 was old state     15
 Root     16 not converged, maximum delta is    0.161703595820499
 New state     17 was old state     16
 Root     17 not converged, maximum delta is    0.271587544172726
 New state     18 was old state     19
 Root     18 not converged, maximum delta is    0.227379968289747
 New state     19 was old state     17
 Root     19 not converged, maximum delta is    0.193183060910664
 New state     20 was old state     22
 Root     20 not converged, maximum delta is    0.189914016663518
 Excitation Energies [eV] at current iteration:
 Root      1 :     2.779488934060339   Change is   -0.231384123351094
 Root      2 :     3.982754165398341   Change is   -0.321729732708716
 Root      3 :     4.552880428524392   Change is   -0.162691780552940
 Root      4 :     4.679878336716000   Change is   -0.167443257211172
 Root      5 :     4.789739637873184   Change is   -0.110367855474901
 Root      6 :     4.898445015098502   Change is   -0.351818467812755
 Root      7 :     5.027651494998652   Change is   -0.260453808651368
 Root      8 :     5.089718911522873   Change is   -0.205392647707763
 Root      9 :     5.210392189827740   Change is   -0.404474410174161
 Root     10 :     5.380444572604194   Change is   -0.158002336403777
 Root     11 :     5.515574786286515   Change is   -0.334121128270253
 Root     12 :     5.600387641094031   Change is   -0.190949930736095
 Root     13 :     5.899697833319456   Change is   -0.121592651654897
 Root     14 :     5.926450074460611   Change is   -0.226056202450189
 Root     15 :     5.942441387976605   Change is   -0.534798446473734
 Root     16 :     6.054325012120698   Change is   -0.155857753432837
 Root     17 :     6.113013817750557   Change is   -0.137893666263691
 Root     18 :     6.231787301397226   Change is   -0.290421692412461
 Root     19 :     6.252692220139699   Change is   -0.113029836123143
 Root     20 :     6.309225287525368   Change is   -0.353891217186046
 Iteration     3 Dimension   160 NMult   120 NNew     40
 CISAX will form    40 AO SS matrices at one time.
 NMat=    40 NSing=    40 JSym2X= 0.
 Root      1 not converged, maximum delta is    0.005679850249967
 Root      2 not converged, maximum delta is    0.005551776410063
 Root      3 not converged, maximum delta is    0.005110476933636
 Root      4 not converged, maximum delta is    0.009413921750292
 Root      5 not converged, maximum delta is    0.010069963841784
 Root      6 not converged, maximum delta is    0.012946472144147
 Root      7 not converged, maximum delta is    0.015408538488703
 Root      8 not converged, maximum delta is    0.019891228431892
 Root      9 not converged, maximum delta is    0.011440834785063
 Root     10 not converged, maximum delta is    0.003894557803025
 Root     11 not converged, maximum delta is    0.021053634591288
 Root     12 not converged, maximum delta is    0.018594542168418
 Root     13 not converged, maximum delta is    0.086231803580573
 Root     14 not converged, maximum delta is    0.231098554596260
 Root     15 not converged, maximum delta is    0.158081439828239
 Root     16 not converged, maximum delta is    0.022938661765177
 Root     17 not converged, maximum delta is    0.024803455318781
 New state     18 was old state     20
 Root     18 not converged, maximum delta is    0.218791372595150
 New state     19 was old state     18
 Root     19 not converged, maximum delta is    0.126993467005940
 New state     20 was old state     19
 Root     20 not converged, maximum delta is    0.250908505235206
 Excitation Energies [eV] at current iteration:
 Root      1 :     2.771367282500994   Change is   -0.008121651559345
 Root      2 :     3.967087091075669   Change is   -0.015667074322671
 Root      3 :     4.545923906521113   Change is   -0.006956522003279
 Root      4 :     4.671160896470599   Change is   -0.008717440245402
 Root      5 :     4.782568927667939   Change is   -0.007170710205246
 Root      6 :     4.883495952522322   Change is   -0.014949062576180
 Root      7 :     5.013419461007780   Change is   -0.014232033990872
 Root      8 :     5.079693422560760   Change is   -0.010025488962112
 Root      9 :     5.195371021935672   Change is   -0.015021167892069
 Root     10 :     5.372885115692266   Change is   -0.007559456911928
 Root     11 :     5.482834316462818   Change is   -0.032740469823697
 Root     12 :     5.587221499028308   Change is   -0.013166142065723
 Root     13 :     5.876612298580571   Change is   -0.023085534738886
 Root     14 :     5.906685163104193   Change is   -0.019764911356418
 Root     15 :     5.922018386300269   Change is   -0.020423001676337
 Root     16 :     6.044546792497340   Change is   -0.009778219623357
 Root     17 :     6.099607506745777   Change is   -0.013406311004780
 Root     18 :     6.160256575998237   Change is   -0.148968711527131
 Root     19 :     6.206912063192287   Change is   -0.024875238204940
 Root     20 :     6.250427743837293   Change is   -0.002264476302406
 Iteration     4 Dimension   200 NMult   160 NNew     40
 CISAX will form    40 AO SS matrices at one time.
 NMat=    40 NSing=    40 JSym2X= 0.
 Root      1 has converged.
 Root      2 has converged.
 Root      3 has converged.
 Root      4 not converged, maximum delta is    0.001052406535038
 Root      5 has converged.
 Root      6 not converged, maximum delta is    0.001017351190147
 Root      7 not converged, maximum delta is    0.001397457372404
 Root      8 has converged.
 Root      9 has converged.
 Root     10 has converged.
 Root     11 not converged, maximum delta is    0.003455969155518
 Root     12 not converged, maximum delta is    0.001863949649658
 Root     13 not converged, maximum delta is    0.003471693475894
 Root     14 not converged, maximum delta is    0.005362425365013
 Root     15 not converged, maximum delta is    0.003500080469161
 Root     16 not converged, maximum delta is    0.002299729501911
 Root     17 not converged, maximum delta is    0.006363434939242
 Root     18 not converged, maximum delta is    0.013926495323137
 Root     19 not converged, maximum delta is    0.012644461367165
 Root     20 not converged, maximum delta is    0.008453511985139
 Excitation Energies [eV] at current iteration:
 Root      1 :     2.770944825361607   Change is   -0.000422457139387
 Root      2 :     3.966281070562477   Change is   -0.000806020513192
 Root      3 :     4.545619664041189   Change is   -0.000304242479924
 Root      4 :     4.670636210326262   Change is   -0.000524686144336
 Root      5 :     4.782274626500324   Change is   -0.000294301167615
 Root      6 :     4.882509471323841   Change is   -0.000986481198481
 Root      7 :     5.012695134966889   Change is   -0.000724326040891
 Root      8 :     5.079061438367498   Change is   -0.000631984193262
 Root      9 :     5.194638628028893   Change is   -0.000732393906778
 Root     10 :     5.372516223302660   Change is   -0.000368892389606
 Root     11 :     5.480439897227765   Change is   -0.002394419235053
 Root     12 :     5.586281932860834   Change is   -0.000939566167474
 Root     13 :     5.875254341071850   Change is   -0.001357957508720
 Root     14 :     5.905175670480542   Change is   -0.001509492623651
 Root     15 :     5.921328901337108   Change is   -0.000689484963160
 Root     16 :     6.043839923876849   Change is   -0.000706868620491
 Root     17 :     6.098577745759634   Change is   -0.001029760986143
 Root     18 :     6.152479542378573   Change is   -0.007777033619665
 Root     19 :     6.205092825613709   Change is   -0.001819237578578
 Root     20 :     6.249219523922647   Change is   -0.001208219914647
 Iteration     5 Dimension   226 NMult   200 NNew     26
 CISAX will form    26 AO SS matrices at one time.
 NMat=    26 NSing=    26 JSym2X= 0.
 Root      1 has converged.
 Root      2 has converged.
 Root      3 has converged.
 Root      4 has converged.
 Root      5 has converged.
 Root      6 has converged.
 Root      7 has converged.
 Root      8 has converged.
 Root      9 has converged.
 Root     10 has converged.
 Root     11 not converged, maximum delta is    0.001190827527651
 Root     12 has converged.
 Root     13 has converged.
 Root     14 has converged.
 Root     15 has converged.
 Root     16 has converged.
 Root     17 has converged.
 Root     18 has converged.
 Root     19 has converged.
 Root     20 has converged.
 Excitation Energies [eV] at current iteration:
 Root      1 :     2.770940870334001   Change is   -0.000003955027605
 Root      2 :     3.966267212537535   Change is   -0.000013858024942
 Root      3 :     4.545616820038306   Change is   -0.000002844002882
 Root      4 :     4.670612840310739   Change is   -0.000023370015524
 Root      5 :     4.782272006529872   Change is   -0.000002619970452
 Root      6 :     4.882464048236326   Change is   -0.000045423087516
 Root      7 :     5.012663824139292   Change is   -0.000031310827597
 Root      8 :     5.079053889802378   Change is   -0.000007548565120
 Root      9 :     5.194625451632423   Change is   -0.000013176396470
 Root     10 :     5.372510791469237   Change is   -0.000005431833423
 Root     11 :     5.480284821362114   Change is   -0.000155075865651
 Root     12 :     5.586237401545270   Change is   -0.000044531315564
 Root     13 :     5.875185597604215   Change is   -0.000068743467635
 Root     14 :     5.905101030891250   Change is   -0.000074639589293
 Root     15 :     5.921290238329508   Change is   -0.000038663007599
 Root     16 :     6.043797092172499   Change is   -0.000042831704350
 Root     17 :     6.098514494559127   Change is   -0.000063251200507
 Root     18 :     6.152112298413873   Change is   -0.000367243964699
 Root     19 :     6.204989660544699   Change is   -0.000103165069009
 Root     20 :     6.249138533186269   Change is   -0.000080990736377
 Iteration     6 Dimension   228 NMult   226 NNew      2
 CISAX will form     2 AO SS matrices at one time.
 NMat=     2 NSing=     2 JSym2X= 0.
 Root      1 has converged.
 Root      2 has converged.
 Root      3 has converged.
 Root      4 has converged.
 Root      5 has converged.
 Root      6 has converged.
 Root      7 has converged.
 Root      8 has converged.
 Root      9 has converged.
 Root     10 has converged.
 Root     11 has converged.
 Root     12 has converged.
 Root     13 has converged.
 Root     14 has converged.
 Root     15 has converged.
 Root     16 has converged.
 Root     17 has converged.
 Root     18 has converged.
 Root     19 has converged.
 Root     20 has converged.
 Excitation Energies [eV] at current iteration:
 Root      1 :     2.770940846841938   Change is   -0.000000023492063
 Root      2 :     3.966267206084722   Change is   -0.000000006452813
 Root      3 :     4.545616813231002   Change is   -0.000000006807305
 Root      4 :     4.670612839012505   Change is   -0.000000001298233
 Root      5 :     4.782271988456284   Change is   -0.000000018073589
 Root      6 :     4.882464039564324   Change is   -0.000000008672001
 Root      7 :     5.012663823586351   Change is   -0.000000000552941
 Root      8 :     5.079053860719241   Change is   -0.000000029083138
 Root      9 :     5.194625439104565   Change is   -0.000000012527857
 Root     10 :     5.372510786428659   Change is   -0.000000005040577
 Root     11 :     5.480274550288361   Change is   -0.000010271073752
 Root     12 :     5.586237054027475   Change is   -0.000000347517795
 Root     13 :     5.875185591278928   Change is   -0.000000006325287
 Root     14 :     5.905101006861895   Change is   -0.000000024029354
 Root     15 :     5.921290237478388   Change is   -0.000000000851120
 Root     16 :     6.043797069543998   Change is   -0.000000022628501
 Root     17 :     6.098514483305937   Change is   -0.000000011253190
 Root     18 :     6.152111983004859   Change is   -0.000000315409014
 Root     19 :     6.204989328535525   Change is   -0.000000332009174
 Root     20 :     6.249138517338618   Change is   -0.000000015847651
 Convergence achieved on expansion vectors.
 ***********************************************************************
 Excited states from <AA,BB:AA,BB> singles matrix:
 ***********************************************************************
 
 1PDM for each excited state written to RWF  633
 Ground to excited state transition densities written to RWF  633
 Ground to excited state transition electric dipole moments (Au):
       state          X           Y           Z        Dip. S.      Osc.
         1         1.1963      0.2906      0.1227      1.5307      0.1039
         2         1.7593      0.7736     -0.1932      3.7309      0.3625
         3         0.3335      0.1845      0.0887      0.1531      0.0171
         4         0.3935     -0.4068      0.1405      0.3400      0.0389
         5         0.1111     -0.0435      0.0785      0.0204      0.0024
         6         0.0219      0.1616      0.4733      0.2505      0.0300
         7        -1.3300      0.4724      0.2755      2.0678      0.2539
         8         0.3169     -0.4427     -0.1875      0.3316      0.0413
         9         0.1133     -1.0271     -0.0706      1.0727      0.1365
        10         0.1589     -0.2912      0.5042      0.3642      0.0479
        11        -0.0097      0.0014     -0.0737      0.0055      0.0007
        12        -0.4559     -0.4843      0.2341      0.4972      0.0681
        13         0.1381     -0.4568      0.0578      0.2311      0.0333
        14         0.0819     -0.5557      0.0680      0.3201      0.0463
        15        -0.1019      0.4366     -0.0610      0.2048      0.0297
        16         0.1190     -0.0991      0.2497      0.0863      0.0128
        17         0.2337     -0.0074      0.0050      0.0547      0.0082
        18        -0.5592      1.4967      0.4226      2.7315      0.4117
        19         0.1856      0.0536     -0.0438      0.0392      0.0060
        20         0.7103     -0.1832     -0.3522      0.6621      0.1014
 Ground to excited state transition velocity dipole moments (Au):
       state          X           Y           Z        Dip. S.      Osc.
         1        -0.1214     -0.0328     -0.0237      0.0164      0.1071
         2        -0.2497     -0.1080      0.0295      0.0749      0.3425
         3        -0.0538     -0.0334     -0.0140      0.0042      0.0168
         4        -0.0679      0.0684     -0.0205      0.0097      0.0377
         5        -0.0205      0.0089     -0.0120      0.0006      0.0024
         6        -0.0016     -0.0279     -0.0860      0.0082      0.0304
         7         0.2430     -0.0807     -0.0538      0.0684      0.2477
         8        -0.0622      0.0795      0.0392      0.0117      0.0418
         9        -0.0224      0.1912      0.0174      0.0374      0.1305
        10        -0.0308      0.0567     -0.1011      0.0144      0.0486
        11         0.0051      0.0062      0.0178      0.0004      0.0013
        12         0.0931      0.0972     -0.0495      0.0206      0.0668
        13        -0.0263      0.1004     -0.0162      0.0110      0.0341
        14        -0.0138      0.1203     -0.0131      0.0148      0.0456
        15         0.0220     -0.0950      0.0114      0.0096      0.0296
        16        -0.0243      0.0231     -0.0530      0.0039      0.0118
        17        -0.0514      0.0033     -0.0009      0.0027      0.0079
        18         0.1224     -0.3362     -0.0887      0.1359      0.4008
        19        -0.0445     -0.0157      0.0094      0.0023      0.0068
        20        -0.1624      0.0417      0.0823      0.0349      0.1013
 Ground to excited state transition magnetic dipole moments (Au):
       state          X           Y           Z
         1         1.0061      0.0805     -0.8798
         2        -0.6686     -0.5783     -1.7545
         3        -0.2938     -0.1648     -0.9370
         4        -0.3250     -0.5287     -0.5238
         5         0.1738      0.4597     -0.0120
         6        -0.1944     -0.0783     -1.2689
         7        -0.0258      0.7380      0.2690
         8        -0.0526     -0.0068      0.5985
         9        -0.1484     -0.0315      0.6890
        10        -0.0121     -0.8037     -0.3538
        11        -0.2224      0.4647     -0.9242
        12         0.4139     -0.1287      0.6784
        13        -0.0089     -0.1652      0.0842
        14        -0.3652     -0.3180     -0.2346
        15        -0.1847      0.5439     -0.5290
        16        -0.1662     -0.3986     -0.1117
        17         0.1656     -0.1270     -0.0310
        18         0.3871      0.4217     -0.7339
        19         0.0360      0.1441     -0.2493
        20         0.3522     -0.3273      0.7490
 Ground to excited state transition velocity quadrupole moments (Au):
       state          XX          YY          ZZ          XY          XZ          YZ
         1        -0.0213     -0.0059     -0.0593      0.0447      0.0231      0.0729
         2        -0.2790     -0.1442      0.0705     -0.0442      0.2454     -0.4121
         3         0.2029     -0.0507      0.0081     -0.3320      0.1060     -0.0090
         4         1.1344     -0.2545      0.0416     -0.0879      0.0346     -0.0490
         5         0.2995     -0.0780      0.0385      0.0040      0.0025     -0.0457
         6         1.4773     -0.4095     -0.0045     -0.2037     -0.1419     -0.0702
         7         0.3512      0.1824     -0.1155     -0.1950     -0.3447      0.0181
         8         0.1625     -0.2568      0.0786     -0.1198      0.0026      0.1122
         9         0.7681      0.0490      0.0776      0.3858      0.0090      0.1023
        10         0.1190     -0.3993      0.0091     -0.2529      0.4942      0.2071
        11        -0.2959      0.0378     -0.0042     -0.3160     -0.1580     -0.0445
        12        -0.1128      0.2068     -0.0647      0.0378      0.1021      0.3047
        13        -0.7483      0.2149      0.0172      0.5225      0.2573      0.1842
        14         0.0298      0.5449     -0.0738      0.3390      0.2586      0.0738
        15         0.2020     -0.0987      0.0432      0.0654     -0.2945     -0.2915
        16         0.0445     -0.2817     -0.0579     -0.2851      0.3412      0.1053
        17         0.5159      0.0466      0.0030     -0.4404      0.2014     -0.0738
        18         1.5500     -1.5099      0.0440     -1.3707     -0.5595     -0.2756
        19        -0.0124     -0.1411      0.0189     -0.1118      0.0159      0.0017
        20        -0.8771     -0.0003      0.1599      0.0142      0.0647      0.1603
 <0|del|b> * <b|rxdel|0> + <0|del|b> * <b|delr+rdel|0>
 Rotatory Strengths (R) in cgs (10**-40 erg-esu-cm/Gauss)
       state          XX          YY          ZZ    R(velocity)    E-M Angle
         1        62.1651   -378.6516   -405.0407   -240.5091      127.34
         2        87.3807    532.4145    242.6365    287.4772       70.69
         3        56.6816     52.3876     36.6111     48.5601       57.82
         4       -53.5667     70.7071    -31.0661     -4.6419       92.42
         5         8.3918     -4.9071     -0.7809      0.9013       86.91
         6       246.0444    181.3731     12.5209    146.6461       16.31
         7      -175.4195    -51.4604    -81.4278   -102.7692      112.99
         8        34.1144     46.2971     18.7772     33.0629       66.26
         9        20.3202     11.6929      2.4653     11.4928       86.09
        10       -22.0905      7.5220    -19.3675    -11.3120       95.16
        11       -31.9641    -21.4032      1.7289    -17.2128      135.39
        12       -99.7248     60.6058     13.0914     -8.6759       93.75
        13       -85.5831      4.0806     23.4796    -19.3409      155.30
        14      -115.2438     18.7992     -1.7887    -32.7444      117.39
        15      -138.0803    -28.0380    -34.7047    -66.9410      143.68
        16         6.3175    -12.2887      8.3861      0.8050       88.45
        17        -1.0747     -8.0046    -19.0225     -9.3672      145.04
        18      -223.9439    -67.0190    199.3415    -30.5404       94.90
        19        -8.3849     -4.6060     -6.2524     -6.4144      116.40
        20        71.4815    -35.1231    -64.8570     -9.4996       93.19
 1/2[<0|r|b>*<b|rxdel|0> + (<0|rxdel|b>*<b|r|0>)*]
 Rotatory Strengths (R) in cgs (10**-40 erg-esu-cm/Gauss)
       state          XX          YY          ZZ     R(length)
         1      -851.1730    -16.5397     76.3606   -263.7840
         2       831.8291    316.3801   -239.7047    302.8348
         3        69.2959     21.4978     58.8032     49.8656
         4        90.4249   -152.0854     52.0630     -3.1992
         5       -13.6585     14.1458      0.6659      0.3844
         6         3.0125      8.9465    424.6605    145.5398
         7       -24.2668   -246.5099    -52.4066   -107.7278
         8        11.7849     -2.1298     79.3645     29.6732
         9        11.8877    -22.8566     34.4102      7.8138
        10         1.3637   -165.4850    126.1249    -12.6655
        11        -1.5197     -0.4671    -48.1806    -16.7225
        12       133.4616    -44.0633   -112.3122     -7.6380
        13         0.8672    -53.3543     -3.4417    -18.6429
        14        21.1609   -124.9463     11.2795    -30.8353
        15       -13.3125   -167.9326    -22.8146    -68.0199
        16        13.9879    -27.9330     19.7282      1.9277
        17       -27.3622     -0.6659      0.1099     -9.3061
        18       153.0651   -446.3834    219.3306    -24.6625
        19        -4.7237     -5.4634     -7.7182     -5.9684
        20      -176.9112    -42.4072    186.5223    -10.9320
  1/2[<0|del|b>*<b|r|0> + (<0|r|b>*<b|del|0>)*] (Au)
       state          X           Y           Z        Dip. S.   Osc.(frdel)
         1        -0.1452     -0.0095     -0.0029      0.1576      0.1051
         2        -0.4393     -0.0836     -0.0057      0.5286      0.3524
         3        -0.0179     -0.0062     -0.0012      0.0254      0.0169
         4        -0.0267     -0.0278     -0.0029      0.0574      0.0383
         5        -0.0023     -0.0004     -0.0009      0.0036      0.0024
         6        -0.0000     -0.0045     -0.0407      0.0452      0.0302
         7        -0.3231     -0.0381     -0.0148      0.3761      0.2507
         8        -0.0197     -0.0352     -0.0073      0.0622      0.0415
         9        -0.0025     -0.1964     -0.0012      0.2001      0.1334
        10        -0.0049     -0.0165     -0.0510      0.0724      0.0482
        11        -0.0000      0.0000     -0.0013      0.0014      0.0009
        12        -0.0425     -0.0471     -0.0116      0.1011      0.0674
        13        -0.0036     -0.0459     -0.0009      0.0504      0.0336
        14        -0.0011     -0.0669     -0.0009      0.0689      0.0459
        15        -0.0022     -0.0415     -0.0007      0.0444      0.0296
        16        -0.0029     -0.0023     -0.0132      0.0184      0.0123
        17        -0.0120     -0.0000     -0.0000      0.0120      0.0080
        18        -0.0685     -0.5032     -0.0375      0.6092      0.4061
        19        -0.0083     -0.0008     -0.0004      0.0095      0.0063
        20        -0.1154     -0.0076     -0.0290      0.1520      0.1013

 Excitation energies and oscillator strengths:
 
 Excited State   1:      Singlet-A      2.7709 eV  447.44 nm  f=0.1039  <S**2>=0.000
      74 -> 78         0.16778
      75 -> 78        -0.30493
      76 -> 78         0.19160
      77 -> 78         0.52551
      77 -> 79        -0.13837
 This state for optimization and/or second-order correction.
[...]
    24  H    0.000008  -0.000000   0.008114  -0.000923  -0.026651   0.006512
    25  N    0.000004  -0.000168  -0.000012   0.000001   0.000058   0.000000
    26  C   -0.000000  -0.000031  -0.000001  -0.000000  -0.000001   0.000000
    27  H   -0.000000   0.000005   0.000001   0.000000  -0.000003  -0.000000
    28  H    0.000000  -0.000001  -0.000000   0.000000   0.000001   0.000000
    29  H    0.000000  -0.000001   0.000000  -0.000000  -0.000000  -0.000000
    30  C   -0.000000   0.000000   0.000033  -0.000001   0.000004   0.000000
    31  H    0.000000   0.000000   0.000007  -0.000000  -0.000005  -0.000000
    32  H   -0.000000   0.000000   0.000280  -0.000022  -0.000023   0.000000
    33  H    0.000000  -0.000000  -0.000024  -0.000000   0.000047   0.000000
    34  O    0.000000  -0.000000   0.000091  -0.000158  -0.000515   0.001991
    35  O    0.000007  -0.000000   0.000022  -0.000079  -0.000294   0.001755
    36  N   -0.000002   0.000000  -0.001191   0.005475   0.006579  -0.041998
              19         20         21         22         23         24
     1  N   -0.000042   0.000034   0.001421   0.000014   0.000007   0.000008
     2  N    0.008034   0.009926  -0.008765  -0.001117  -0.000120  -0.000076
     3  C    0.000404  -0.003131   0.007641   0.000064  -0.000003   0.000004
     4  C   -0.000193   0.000290  -0.001001   0.000041   0.000007   0.000018
     5  C   -0.000025  -0.000029  -0.000690  -0.000001  -0.000000   0.000001
     6  C    0.000011  -0.000032   0.000071   0.000009   0.000000  -0.000008
     7  C   -0.000030   0.004022  -0.001054  -0.001697   0.000078   0.000266
     8  C    0.000000   0.000002   0.000035  -0.000001   0.000000  -0.000001
     9  C    0.000004   0.000437  -0.000027  -0.000130   0.000001   0.000083
    10  H    0.000463  -0.002763   0.000182   0.000247  -0.000024  -0.000026
    11  C   -0.000001  -0.000014   0.000004   0.000016  -0.000000  -0.000005
    12  H    0.000000   0.000000   0.000001  -0.000000   0.000000   0.000000
    13  H    0.000001   0.000081   0.000001   0.000078   0.000007   0.000008
    14  H   -0.000000  -0.000001  -0.000000  -0.000000  -0.000000  -0.000000
    15  C   -0.066710  -0.010642  -0.051098  -0.080164   0.009670   0.008114
    16  C    0.428243  -0.061330   0.006432  -0.032298  -0.034020  -0.000923
    17  C    0.011243   0.429089   0.427801   0.003094  -0.002728  -0.026651
    18  C   -0.035872   0.002475  -0.000622   0.429701   0.420373   0.006512
    19  H    0.530152  -0.002839  -0.000039   0.011285  -0.008530   0.000032
    20  C   -0.002839   5.036355  -0.031056   0.288130   0.012933   0.428174
    21  H   -0.000039  -0.031056   0.508065   0.007778   0.000030  -0.006388
    22  C    0.011285   0.288130   0.007778   5.305440  -0.061574  -0.061730
    23  H   -0.008530   0.012933   0.000030  -0.061574   0.519670   0.000136
    24  H    0.000032   0.428174  -0.006388  -0.061730   0.000136   0.509395
    25  N    0.000000   0.000005  -0.000022  -0.000000  -0.000000   0.000000
    26  C   -0.000000   0.000000  -0.000010   0.000000   0.000000   0.000000
    27  H    0.000000  -0.000000   0.000003   0.000000  -0.000000  -0.000000
    28  H   -0.000000   0.000000  -0.000000  -0.000000   0.000000   0.000000
    29  H    0.000000  -0.000000  -0.000000   0.000000  -0.000000   0.000000
    30  C   -0.000000   0.000001   0.000053  -0.000000  -0.000000  -0.000000
    31  H    0.000000  -0.000000   0.000002   0.000000  -0.000000  -0.000000
    32  H   -0.000007   0.000003  -0.000062  -0.000000  -0.000000  -0.000000
    33  H   -0.000000   0.000002  -0.000029  -0.000000   0.000000   0.000000
    34  O   -0.000000  -0.000461  -0.000032  -0.064132  -0.000235   0.009978
    35  O    0.000005  -0.001700  -0.000032  -0.063414  -0.000273   0.010276
    36  N   -0.000136  -0.091446  -0.000077   0.304843   0.007328  -0.015867
              25         26         27         28         29         30
     1  N    0.001808  -0.000042  -0.000002   0.000008  -0.000005  -0.001876
     2  N   -0.000052   0.000004  -0.000001  -0.000000   0.000000   0.000031
     3  C   -0.060972   0.008726  -0.000709   0.000187   0.000967  -0.068350
     4  C   -0.048691   0.006982   0.000940   0.000165  -0.000818   0.014487
     5  C    0.444148  -0.062148   0.005120   0.001856  -0.015438   0.321666
     6  C    0.394345  -0.066124  -0.008351  -0.003338   0.006824   0.002581
     7  C    0.007097  -0.000170   0.000037  -0.000037   0.000007   0.000136
     8  C   -0.053075  -0.005551   0.001275   0.001384   0.000210  -0.000176
     9  C    0.000035   0.000020  -0.000044  -0.000013   0.000000  -0.000003
    10  H   -0.000071   0.000016   0.000001  -0.000001  -0.000001  -0.000004
    11  C    0.004538  -0.000051   0.000209  -0.000051   0.000015   0.000011
    12  H   -0.005675   0.003377  -0.000768  -0.000182   0.000012  -0.000020
    13  H    0.000004  -0.000000  -0.000000   0.000000   0.000000  -0.000000
    14  H   -0.000168  -0.000031   0.000005  -0.000001  -0.000001   0.000000
    15  C   -0.000012  -0.000001   0.000001  -0.000000   0.000000   0.000033
    16  C    0.000001  -0.000000   0.000000   0.000000  -0.000000  -0.000001
    17  C    0.000058  -0.000001  -0.000003   0.000001  -0.000000   0.000004
    18  C    0.000000   0.000000  -0.000000   0.000000  -0.000000   0.000000
    19  H    0.000000  -0.000000   0.000000  -0.000000   0.000000  -0.000000
    20  C    0.000005   0.000000  -0.000000   0.000000  -0.000000   0.000001
    21  H   -0.000022  -0.000010   0.000003  -0.000000  -0.000000   0.000053
    22  C   -0.000000   0.000000   0.000000  -0.000000   0.000000  -0.000000
    23  H   -0.000000   0.000000  -0.000000   0.000000  -0.000000  -0.000000
    24  H    0.000000   0.000000  -0.000000   0.000000   0.000000  -0.000000
    25  N    6.626774   0.288472  -0.030951  -0.036454  -0.016293  -0.047080
    26  C    0.288472   4.783965   0.409123   0.410323   0.407090  -0.006282
    27  H   -0.030951   0.409123   0.529663  -0.033946  -0.021353   0.000208
    28  H   -0.036454   0.410323  -0.033946   0.529655  -0.022013  -0.000286
    29  H   -0.016293   0.407090  -0.021353  -0.022013   0.508283   0.003578
    30  C   -0.047080  -0.006282   0.000208  -0.000286   0.003578   4.829128
    31  H   -0.003640  -0.000531   0.000174  -0.000167  -0.001651   0.413757
    32  H    0.004223   0.000425  -0.000004  -0.000026   0.000231   0.407298
    33  H   -0.001847  -0.000677   0.000020   0.000010  -0.000344   0.404437
    34  O   -0.000000   0.000000   0.000000  -0.000000   0.000000  -0.000000
    35  O   -0.000000  -0.000000  -0.000000   0.000000  -0.000000   0.000000
    36  N   -0.000000   0.000000   0.000000  -0.000000   0.000000  -0.000000
              31         32         33         34         35         36
     1  N    0.000073   0.026680  -0.000311   0.000000  -0.000000   0.000000
     2  N   -0.000033  -0.001988   0.000134   0.000000  -0.000000  -0.000001
     3  C    0.002774  -0.017669   0.001028  -0.000000  -0.000000   0.000000
     4  C    0.000806   0.004207  -0.000733  -0.000000   0.000000  -0.000000
     5  C   -0.043664  -0.031097  -0.035869   0.000000   0.000000  -0.000000
     6  C   -0.000925  -0.000875  -0.000046  -0.000000   0.000000   0.000000
     7  C    0.000037   0.000058  -0.000006   0.000000  -0.000004  -0.000030
     8  C   -0.000033  -0.000003   0.000017   0.000000  -0.000000  -0.000000
     9  C   -0.000002  -0.000001  -0.000000  -0.000000   0.000002  -0.000004
    10  H    0.000001   0.000002  -0.000001   0.000003  -0.000006   0.000048
    11  C    0.000000   0.000001  -0.000001   0.000000  -0.000000   0.000000
    12  H   -0.000005  -0.000001  -0.000000  -0.000000  -0.000000  -0.000000
    13  H    0.000000  -0.000000   0.000000   0.000000   0.000007  -0.000002
    14  H    0.000000   0.000000  -0.000000  -0.000000  -0.000000   0.000000
    15  C    0.000007   0.000280  -0.000024   0.000091   0.000022  -0.001191
    16  C   -0.000000  -0.000022  -0.000000  -0.000158  -0.000079   0.005475
    17  C   -0.000005  -0.000023   0.000047  -0.000515  -0.000294   0.006579
    18  C   -0.000000   0.000000   0.000000   0.001991   0.001755  -0.041998
    19  H    0.000000  -0.000007  -0.000000  -0.000000   0.000005  -0.000136
    20  C   -0.000000   0.000003   0.000002  -0.000461  -0.001700  -0.091446
    21  H    0.000002  -0.000062  -0.000029  -0.000032  -0.000032  -0.000077
    22  C    0.000000  -0.000000  -0.000000  -0.064132  -0.063414   0.304843
    23  H   -0.000000  -0.000000   0.000000  -0.000235  -0.000273   0.007328
    24  H   -0.000000  -0.000000   0.000000   0.009978   0.010276  -0.015867
    25  N   -0.003640   0.004223  -0.001847  -0.000000  -0.000000  -0.000000
    26  C   -0.000531   0.000425  -0.000677   0.000000  -0.000000   0.000000
    27  H    0.000174  -0.000004   0.000020   0.000000  -0.000000   0.000000
    28  H   -0.000167  -0.000026   0.000010  -0.000000   0.000000  -0.000000
    29  H   -0.001651   0.000231  -0.000344   0.000000  -0.000000   0.000000
    30  C    0.413757   0.407298   0.404437  -0.000000   0.000000  -0.000000
    31  H    0.531005  -0.017554  -0.028934   0.000000  -0.000000   0.000000
    32  H   -0.017554   0.507333  -0.020837   0.000000  -0.000000   0.000000
    33  H   -0.028934  -0.020837   0.530328  -0.000000   0.000000  -0.000000
    34  O    0.000000   0.000000  -0.000000   8.119294   0.005633   0.053265
    35  O   -0.000000  -0.000000   0.000000   0.005633   8.119149   0.053397
    36  N    0.000000   0.000000  -0.000000   0.053265   0.053397   6.764971
 Mulliken charges:
               1
     1  N   -0.182687
     2  N   -0.203245
     3  C   -0.116682
     4  C   -0.054334
     5  C    0.242138
     6  C    0.200355
     7  C   -0.059832
     8  C   -0.082152
     9  C   -0.138512
    10  H    0.129559
    11  C   -0.129470
    12  H    0.131393
    13  H    0.115951
    14  H    0.119540
    15  C   -0.041077
    16  C   -0.084875
    17  C   -0.047134
    18  C   -0.033393
    19  H    0.124546
    20  C   -0.006513
    21  H    0.141484
    22  C    0.015518
    23  H    0.137266
    24  H    0.138670
    25  N   -0.466505
    26  C   -0.176902
    27  H    0.149351
    28  H    0.152926
    29  H    0.150698
    30  C   -0.273331
    31  H    0.148508
    32  H    0.139427
    33  H    0.153635
    34  O   -0.124722
    35  O   -0.124443
    36  N   -0.045154
 Sum of Mulliken charges =  -0.00000
 Mulliken charges with hydrogens summed into heavy atoms:
               1
     1  N   -0.182687
     2  N   -0.203245
     3  C   -0.116682
     4  C   -0.054334
     5  C    0.242138
     6  C    0.200355
     7  C    0.069727
     8  C    0.049241
     9  C   -0.022561
    11  C   -0.009930
    15  C   -0.041077
    16  C    0.039670
    17  C    0.094350
    18  C    0.103873
    20  C    0.132158
    22  C    0.015518
    25  N   -0.466505
    26  C    0.276072
    30  C    0.168238
    34  O   -0.124722
    35  O   -0.124443
    36  N   -0.045154
 Electronic spatial extent (au):  <R**2>=           7084.6522
 Charge=             -0.0000 electrons
 Dipole moment (field-independent basis, Debye):
    X=              8.0525    Y=              2.2847    Z=             -1.7493  Tot=              8.5511
 Quadrupole moment (field-independent basis, Debye-Ang):
   XX=           -112.1393   YY=           -134.1356   ZZ=           -122.0157
   XY=              9.0302   XZ=            -18.5903   YZ=              3.1553
 Traceless Quadrupole moment (field-independent basis, Debye-Ang):
   XX=             10.6242   YY=            -11.3721   ZZ=              0.7479
   XY=              9.0302   XZ=            -18.5903   YZ=              3.1553
 Octapole moment (field-independent basis, Debye-Ang**2):
  XXX=            239.3894  YYY=             71.8543  ZZZ=            -19.5068  XYY=             15.4360
  XXY=            -20.0963  XXZ=            -17.2764  XZZ=            -13.0696  YZZ=             -5.6055
  YYZ=            -10.1598  XYZ=              1.8007
 Hexadecapole moment (field-independent basis, Debye-Ang**3):
 XXXX=          -6344.4201 YYYY=          -2172.7186 ZZZZ=           -729.3987 XXXY=            134.8795
 XXXZ=           -296.5673 YYYX=              6.2027 YYYZ=             47.0715 ZZZX=            -20.6993
 ZZZY=            -37.7199 XXYY=          -1391.5745 XXZZ=          -1161.3932 YYZZ=           -477.2625
 XXYZ=             -9.8425 YYXZ=            -37.0454 ZZXY=            -13.9072
 N-N= 1.713162772206D+03 E-N=-5.728132826048D+03  KE= 9.842090332340D+02
 Leave Link  601 at Thu Feb 13 13:44:32 2025, MaxMem= 25501368320 cpu:              11.2 elap:               0.5
 (Enter /share/Apps/gaussian/g16/l9999.exe)
 Electronic transition elements 
                 1             2             3             4             5 
      1  -0.986968D+03 -0.986925D+03 -0.986903D+03 -0.986899D+03 -0.986895D+03
      2  -0.119632D+01 -0.175930D+01 -0.333495D+00 -0.393467D+00 -0.111148D+00
      3   0.290631D+00  0.773568D+00  0.184477D+00 -0.406790D+00 -0.435105D-01
      4  -0.122741D+00  0.193201D+00 -0.887433D-01 -0.140549D+00 -0.784940D-01
      5   0.121358D+00  0.249702D+00  0.538216D-01  0.678668D-01  0.205426D-01
      6  -0.328008D-01 -0.108027D+00 -0.334465D-01  0.684394D-01  0.891393D-02
      7   0.236912D-01 -0.294506D-01  0.139666D-01  0.205174D-01  0.119687D-01
      8  -0.100612D+01  0.668611D+00  0.293830D+00  0.324981D+00 -0.173771D+00
      9   0.804760D-01 -0.578349D+00 -0.164790D+00 -0.528685D+00  0.459742D+00
     10   0.879752D+00  0.175447D+01  0.937011D+00  0.523818D+00  0.119966D-01
     11  -0.212649D-01 -0.278992D+00  0.202872D+00  0.113437D+01  0.299545D+00
     12  -0.586784D-02 -0.144248D+00 -0.507062D-01 -0.254510D+00 -0.779674D-01
     13  -0.592628D-01  0.705247D-01  0.811068D-02  0.415933D-01  0.385001D-01
     14  -0.446758D-01  0.441726D-01  0.331966D+00  0.878523D-01 -0.402568D-02
     15   0.231403D-01  0.245444D+00  0.105960D+00  0.346334D-01  0.251407D-02
     16  -0.729226D-01  0.412067D+00  0.901856D-02  0.489705D-01  0.457065D-01
                 6             7             8             9            10 
      1  -0.986891D+03 -0.986886D+03 -0.986884D+03 -0.986879D+03 -0.986873D+03
      2  -0.219109D-01  0.132998D+01 -0.316941D+00 -0.113303D+00 -0.158941D+00
      3   0.161560D+00  0.472358D+00 -0.442686D+00 -0.102706D+01 -0.291177D+00
      4  -0.473251D+00 -0.275455D+00  0.187529D+00  0.706282D-01 -0.504163D+00
      5   0.163662D-02 -0.242951D+00  0.621697D-01  0.224280D-01  0.307550D-01
      6  -0.279260D-01 -0.807338D-01  0.794636D-01  0.191180D+00  0.567399D-01
      7   0.859949D-01  0.537617D-01 -0.391870D-01 -0.174124D-01  0.101064D+00
      8   0.194420D+00  0.258017D-01  0.525808D-01  0.148366D+00  0.121330D-01
      9  -0.783062D-01  0.737976D+00 -0.680328D-02 -0.314699D-01 -0.803674D+00
     10   0.126891D+01 -0.269039D+00 -0.598462D+00 -0.688950D+00  0.353760D+00
     11   0.147733D+01  0.351167D+00  0.162502D+00  0.768083D+00  0.119042D+00
     12  -0.409509D+00  0.182413D+00 -0.256807D+00  0.490391D-01 -0.399315D+00
     13  -0.453037D-02 -0.115467D+00  0.786014D-01  0.775807D-01  0.908029D-02
     14   0.203661D+00  0.194968D+00  0.119841D+00 -0.385761D+00  0.252860D+00
     15  -0.141935D+00 -0.344707D+00  0.259873D-02  0.902822D-02  0.494225D+00
     16   0.701643D-01 -0.181280D-01 -0.112231D+00 -0.102276D+00 -0.207131D+00
                11            12            13            14            15 
      1  -0.986869D+03 -0.986865D+03 -0.986854D+03 -0.986853D+03 -0.986853D+03
      2   0.966251D-02  0.455921D+00 -0.138134D+00 -0.819305D-01  0.101946D+00
      3   0.142138D-02 -0.484329D+00 -0.456843D+00 -0.555701D+00  0.436623D+00
      4   0.737163D-01 -0.234117D+00 -0.577990D-01 -0.679979D-01  0.609830D-01
      5  -0.513709D-02 -0.931157D-01  0.263208D-01  0.137662D-01 -0.219689D-01
      6   0.619187D-02  0.971741D-01  0.100413D+00  0.120303D+00 -0.950413D-01
      7  -0.177884D-01  0.495287D-01  0.162182D-01  0.131204D-01 -0.114310D-01
      8   0.222408D+00 -0.413948D+00  0.887754D-02  0.365232D+00  0.184659D+00
      9   0.464661D+00 -0.128652D+00 -0.165151D+00 -0.317952D+00  0.543885D+00
     10   0.924247D+00 -0.678380D+00 -0.842036D-01  0.234571D+00  0.529034D+00
     11  -0.295913D+00 -0.112763D+00 -0.748281D+00  0.298309D-01  0.202021D+00
     12   0.378010D-01  0.206791D+00  0.214878D+00  0.544852D+00 -0.987154D-01
     13  -0.422523D-02 -0.646721D-01  0.172470D-01 -0.738397D-01  0.431794D-01
     14   0.315981D+00 -0.378391D-01 -0.522453D+00 -0.338996D+00 -0.654175D-01
     15  -0.157982D+00  0.102139D+00  0.257312D+00  0.258592D+00 -0.294470D+00
     16   0.444594D-01 -0.304652D+00 -0.184248D+00 -0.737637D-01  0.291474D+00
                16            17            18            19            20 
      1  -0.986848D+03 -0.986846D+03 -0.986844D+03 -0.986842D+03 -0.986841D+03
      2  -0.119047D+00 -0.233658D+00  0.559214D+00 -0.185574D+00 -0.710313D+00
      3  -0.990904D-01 -0.741629D-02  0.149673D+01  0.535960D-01 -0.183214D+00
      4  -0.249715D+00 -0.502239D-02 -0.422633D+00  0.437761D-01  0.352153D+00
      5   0.242891D-01  0.514017D-01 -0.122448D+00  0.444805D-01  0.162445D+00
      6   0.230877D-01  0.331511D-02 -0.336223D+00 -0.156679D-01  0.417070D-01
      7   0.530452D-01  0.864657D-03  0.887241D-01 -0.940769D-02 -0.822553D-01
      8   0.166155D+00 -0.165596D+00 -0.387059D+00 -0.359952D-01 -0.352196D+00
      9  -0.398625D+00 -0.126974D+00  0.421739D+00  0.144147D+00 -0.327310D+00
     10   0.111717D+00  0.309554D-01  0.733863D+00  0.249322D+00 -0.748994D+00
     11   0.444934D-01  0.515859D+00  0.154997D+01 -0.123560D-01 -0.877100D+00
     12  -0.281674D+00  0.466413D-01 -0.150991D+01 -0.141119D+00 -0.277658D-03
     13  -0.578918D-01  0.296835D-02  0.440149D-01  0.188954D-01  0.159923D+00
     14   0.285083D+00  0.440408D+00  0.137069D+01  0.111816D+00 -0.142071D-01
     15   0.341161D+00  0.201449D+00 -0.559507D+00  0.158558D-01  0.647163D-01
     16  -0.105345D+00  0.737773D-01  0.275595D+00 -0.170320D-02 -0.160300D+00
 Unable to Open any file for archive entry.
 1\1\GINC-SOL-E614\SP\RCAM-B3LYP TD-FC\6-311G(d,p)\C16H14N4O2\CRF524\13
 -Feb-2025\0\\#p td(nstates=20, singlets) cam-b3lyp/6-311g(d,p) scrf=(s
 olvent=acetonitrile)\\no2-pai-me_anti-cis_tddft\\0,1\N,0,-1.222305,-2.
 267098,-0.470563\N,0,-0.025087,-2.557963,-0.676803\C,0,-1.75937,-1.013
 983,-0.213723\C,0,-1.4073,0.367469,-0.504041\C,0,-3.025806,-0.995066,0
 .370588\C,0,-2.488461,1.136901,-0.027082\C,0,-0.374126,1.035489,-1.170
 796\C,0,-2.547193,2.520294,-0.148542\C,0,-0.427467,2.411953,-1.301876\
 H,0,0.461241,0.496265,-1.591094\C,0,-1.497121,3.152397,-0.788533\H,0,-
 3.390627,3.082692,0.231137\H,0,0.376912,2.925514,-1.814439\H,0,-1.5100
 86,4.22921,-0.903559\C,0,1.060884,-1.674679,-0.452747\C,0,2.062671,-1.
 61915,-1.417688\C,0,1.235169,-1.026351,0.774578\C,0,3.205857,-0.872414
 ,-1.185562\H,0,1.931732,-2.160964,-2.345488\C,0,2.384646,-0.302908,1.0
 17581\H,0,0.469651,-1.100843,1.535656\C,0,3.357305,-0.220827,0.027323\
 H,0,3.98835,-0.798742,-1.929916\H,0,2.533018,0.200601,1.962763\N,0,-3.
 437882,0.286303,0.518302\C,0,-4.682599,0.739847,1.111268\H,0,-4.4781,1
 .493216,1.872209\H,0,-5.337236,1.168602,0.350645\H,0,-5.1893,-0.097709
 ,1.581224\C,0,-3.839872,-2.158511,0.806072\H,0,-4.851122,-2.10637,0.39
 8096\H,0,-3.361306,-3.071066,0.460078\H,0,-3.919841,-2.20315,1.89518\O
 ,0,5.03644,0.489365,1.520801\O,0,4.394399,1.662804,0.990221\N,0,4.5833
 72,0.516275,0.175978\\Version=ES64L-G16RevC.01\State=1-A\HF=-987.07030
 29\RMSD=7.269e-09\PG=C01 [X(C16H14N4O2)]\\@
 The archive entry for this job was punched.


 QUANTUM MECHANICS IS BOHRING -- M.S. GORDON
 Job cpu time:       0 days  2 hours 28 minutes 13.3 seconds.
 Elapsed time:       0 days  0 hours  4 minutes 11.6 seconds.
 File lengths (MBytes):  RWF=   2760 Int=      0 D2E=      0 Chk=    284 Scr=      8
 Normal termination of Gaussian 16 at Thu Feb 13 13:44:32 2025.
