 Entering Gaussian System, Link 0=g16
 Initial command:
 /share/Apps/gaussian/g16/l1.exe "/share/ceph/scratch/crf524/12229068/Gau-479768.inp" -scrdir="/share/ceph/scratch/crf524/12229068/"
 Entering Link 1 = /share/Apps/gaussian/g16/l1.exe PID=    479771.
  
 Copyright (c) 1988-2019, Gaussian, Inc.  All Rights Reserved.
  
 This is part of the Gaussian(R) 16 program.  It is based on
 the Gaussian(R) 09 system (copyright 2009, Gaussian, Inc.),
 the Gaussian(R) 03 system (copyright 2003, Gaussian, Inc.),
 the Gaussian(R) 98 system (copyright 1998, Gaussian, Inc.),
 the Gaussian(R) 94 system (copyright 1995, Gaussian, Inc.),
 the Gaussian 92(TM) system (copyright 1992, Gaussian, Inc.),
 the Gaussian 90(TM) system (copyright 1990, Gaussian, Inc.),
 the Gaussian 88(TM) system (copyright 1988, Gaussian, Inc.),
 the Gaussian 86(TM) system (copyright 1986, Carnegie Mellon
 University), and the Gaussian 82(TM) system (copyright 1983,
 Carnegie Mellon University). Gaussian is a federally registered
 trademark of Gaussian, Inc.
  
 This software contains proprietary and confidential information,
 including trade secrets, belonging to Gaussian, Inc.
  
 This software is provided under written license and may be
 used, copied, transmitted, or stored only in accord with that
 written license.
  
 The following legend is applicable only to US Government
 contracts under FAR:
  
                    RESTRICTED RIGHTS LEGEND
  
 Use, reproduction and disclosure by the US Government is
 subject to restrictions as set forth in subparagraphs (a)
 and (c) of the Commercial Computer Software - Restricted
 Rights clause in FAR 52.227-19.
  
 Gaussian, Inc.
 340 Quinnipiac St., Bldg. 40, Wallingford CT 06492
  
  
 ---------------------------------------------------------------
 Warning -- This program may not be used in any manner that
 competes with the business of Gaussian, Inc. or will provide
 assistance to any competitor of Gaussian, Inc.  The licensee
 of this program is prohibited from giving any competitor of
 Gaussian, Inc. access to this program.  By using this program,
 the user acknowledges that Gaussian, Inc. is engaged in the
 business of creating and licensing software in the field of
 computational chemistry and represents and warrants to the
 licensee that it is not a competitor of Gaussian, Inc. and that
 it will not use this program in any manner prohibited above.
 ---------------------------------------------------------------
  

 Cite this work as:
 Gaussian 16, Revision C.01,
 M. J. Frisch, G. W. Trucks, H. B. Schlegel, G. E. Scuseria, 
 M. A. Robb, J. R. Cheeseman, G. Scalmani, V. Barone, 
 G. A. Petersson, H. Nakatsuji, X. Li, M. Caricato, A. V. Marenich, 
 J. Bloino, B. G. Janesko, R. Gomperts, B. Mennucci, H. P. Hratchian, 
 J. V. Ortiz, A. F. Izmaylov, J. L. Sonnenberg, D. Williams-Young, 
 F. Ding, F. Lipparini, F. Egidi, J. Goings, B. Peng, A. Petrone, 
 T. Henderson, D. Ranasinghe, V. G. Zakrzewski, J. Gao, N. Rega, 
 G. Zheng, W. Liang, M. Hada, M. Ehara, K. Toyota, R. Fukuda, 
 J. Hasegawa, M. Ishida, T. Nakajima, Y. Honda, O. Kitao, H. Nakai, 
 T. Vreven, K. Throssell, J. A. Montgomery, Jr., J. E. Peralta, 
 F. Ogliaro, M. J. Bearpark, J. J. Heyd, E. N. Brothers, K. N. Kudin, 
 V. N. Staroverov, T. A. Keith, R. Kobayashi, J. Normand, 
 K. Raghavachari, A. P. Rendell, J. C. Burant, S. S. Iyengar, 
 J. Tomasi, M. Cossi, J. M. Millam, M. Klene, C. Adamo, R. Cammi, 
 J. W. Ochterski, R. L. Martin, K. Morokuma, O. Farkas, 
 J. B. Foresman, and D. J. Fox, Gaussian, Inc., Wallingford CT, 2019.
 
 ******************************************
 Gaussian 16:  ES64L-G16RevC.01  3-Jul-2019
                30-Jan-2025 
 ******************************************
 %nprocshared=36
 Will use up to   36 processors via shared memory.
 %mem=190GB
 %chk=anti-trans.chk
 ----------------------------------------------------------------------
 #p td(nstates=20, singlets) cam-b3lyp/6-311g(d,p) scrf=(solvent=aceton
 itrile)
 ----------------------------------------------------------------------
 1/38=1,172=1/1;
 2/12=2,17=6,18=5,40=1/2;
 3/5=4,6=6,7=101,11=9,25=1,30=1,70=2201,72=2,74=-40/1,2,3,8;
 4//1;
 5/5=2,38=5,53=2/2;
 8/6=1,10=2,108=20/1;
 9/41=20,42=1,48=1,70=2/14;
 6/7=2,8=2,9=2,10=2/1;
 99/5=1,9=1/99;
 Leave Link    1 at Thu Jan 30 16:30:34 2025, MaxMem= 25501368320 cpu:               5.6 elap:               0.2
 (Enter /share/Apps/gaussian/g16/l101.exe)
 -------------------------
 f-pai-me_anti-trans_tddft
 -------------------------
 Symbolic Z-matrix:
 Charge =  0 Multiplicity = 1
 N                    -0.28368   0.6528    0.00405 
 N                    -0.95517  -0.40662   0.00322 
 C                     1.081     0.50676   0.00333 
 C                     1.92381  -0.66688  -0.00287 
 C                     1.91373   1.61886   0.00859 
 C                     3.2462   -0.1836   -0.00118 
 C                     1.70744  -2.04695  -0.01013 
 C                     4.35022  -1.02777  -0.00624 
 C                     2.80304  -2.89387  -0.01529 
 H                     0.69934  -2.43406  -0.01157 
 C                     4.10969  -2.39155  -0.01331 
 H                     5.36062  -0.63877  -0.00478 
 H                     2.64815  -3.9662   -0.02095 
 H                     4.94671  -3.07915  -0.01741 
 C                    -2.36066  -0.21469   0.00048 
 C                    -3.1338   -1.37258   0.03573 
 C                    -2.9925    1.03055  -0.03801 
 C                    -4.51853  -1.30265   0.0361 
 H                    -2.63179  -2.33139   0.0638 
 C                    -4.37314   1.11269  -0.03884 
 H                    -2.3895    1.9269   -0.06784 
 C                    -5.11115  -0.05725  -0.00118 
 H                    -5.13352  -2.19256   0.06414 
 H                    -4.88403   2.06653  -0.06902 
 N                     3.20877   1.20409   0.00585 
 C                     4.39338   2.0413    0.01004 
 H                     4.99494   1.84255   0.8983 
 H                     4.99641   1.84906  -0.87864 
 H                     4.10195   3.08735   0.01355 
 C                     1.52309   3.0521    0.01654 
 H                     1.90708   3.57335  -0.86346 
 H                     0.43847   3.12534   0.0176 
 H                     1.90791   3.56356   0.90192 
 F                    -6.45814   0.02543  -0.00222 
 
 ITRead=  0  0  0  0  0  0  0  0  0  0  0  0  0  0  0  0  0  0  0  0
 ITRead=  0  0  0  0  0  0  0  0  0  0  0  0  0  0
 MicOpt= -1 -1 -1 -1 -1 -1 -1 -1 -1 -1 -1 -1 -1 -1 -1 -1 -1 -1 -1 -1
 MicOpt= -1 -1 -1 -1 -1 -1 -1 -1 -1 -1 -1 -1 -1 -1
 NAtoms=     34 NQM=       34 NQMF=       0 NMMI=      0 NMMIF=      0
                NMic=       0 NMicF=      0.
                    Isotopes and Nuclear Properties:
 (Nuclear quadrupole moments (NQMom) in fm**2, nuclear magnetic moments (NMagM)
  in nuclear magnetons)

  Atom         1           2           3           4           5           6           7           8           9          10
 IAtWgt=          14          14          12          12          12          12          12          12          12           1
 AtmWgt=  14.0030740  14.0030740  12.0000000  12.0000000  12.0000000  12.0000000  12.0000000  12.0000000  12.0000000   1.0078250
 NucSpn=           2           2           0           0           0           0           0           0           0           1
 AtZEff=  -0.0000000  -0.0000000  -0.0000000  -0.0000000  -0.0000000  -0.0000000  -0.0000000  -0.0000000  -0.0000000  -0.0000000
 NQMom=    2.0440000   2.0440000   0.0000000   0.0000000   0.0000000   0.0000000   0.0000000   0.0000000   0.0000000   0.0000000
 NMagM=    0.4037610   0.4037610   0.0000000   0.0000000   0.0000000   0.0000000   0.0000000   0.0000000   0.0000000   2.7928460
 AtZNuc=   7.0000000   7.0000000   6.0000000   6.0000000   6.0000000   6.0000000   6.0000000   6.0000000   6.0000000   1.0000000

  Atom        11          12          13          14          15          16          17          18          19          20
 IAtWgt=          12           1           1           1          12          12          12          12           1          12
 AtmWgt=  12.0000000   1.0078250   1.0078250   1.0078250  12.0000000  12.0000000  12.0000000  12.0000000   1.0078250  12.0000000
 NucSpn=           0           1           1           1           0           0           0           0           1           0
 AtZEff=  -0.0000000  -0.0000000  -0.0000000  -0.0000000  -0.0000000  -0.0000000  -0.0000000  -0.0000000  -0.0000000  -0.0000000
 NQMom=    0.0000000   0.0000000   0.0000000   0.0000000   0.0000000   0.0000000   0.0000000   0.0000000   0.0000000   0.0000000
 NMagM=    0.0000000   2.7928460   2.7928460   2.7928460   0.0000000   0.0000000   0.0000000   0.0000000   2.7928460   0.0000000
 AtZNuc=   6.0000000   1.0000000   1.0000000   1.0000000   6.0000000   6.0000000   6.0000000   6.0000000   1.0000000   6.0000000

  Atom        21          22          23          24          25          26          27          28          29          30
 IAtWgt=           1          12           1           1          14          12           1           1           1          12
 AtmWgt=   1.0078250  12.0000000   1.0078250   1.0078250  14.0030740  12.0000000   1.0078250   1.0078250   1.0078250  12.0000000
 NucSpn=           1           0           1           1           2           0           1           1           1           0
 AtZEff=  -0.0000000  -0.0000000  -0.0000000  -0.0000000  -0.0000000  -0.0000000  -0.0000000  -0.0000000  -0.0000000  -0.0000000
 NQMom=    0.0000000   0.0000000   0.0000000   0.0000000   2.0440000   0.0000000   0.0000000   0.0000000   0.0000000   0.0000000
 NMagM=    2.7928460   0.0000000   2.7928460   2.7928460   0.4037610   0.0000000   2.7928460   2.7928460   2.7928460   0.0000000
 AtZNuc=   1.0000000   6.0000000   1.0000000   1.0000000   7.0000000   6.0000000   1.0000000   1.0000000   1.0000000   6.0000000

  Atom        31          32          33          34
 IAtWgt=           1           1           1          19
 AtmWgt=   1.0078250   1.0078250   1.0078250  18.9984032
 NucSpn=           1           1           1           1
 AtZEff=  -0.0000000  -0.0000000  -0.0000000  -0.0000000
 NQMom=    0.0000000   0.0000000   0.0000000   0.0000000
 NMagM=    2.7928460   2.7928460   2.7928460   2.6288670
 AtZNuc=   1.0000000   1.0000000   1.0000000   9.0000000
 Leave Link  101 at Thu Jan 30 16:30:34 2025, MaxMem= 25501368320 cpu:               3.6 elap:               0.1
 (Enter /share/Apps/gaussian/g16/l202.exe)
                          Input orientation:                          
 ---------------------------------------------------------------------
 Center     Atomic      Atomic             Coordinates (Angstroms)
 Number     Number       Type             X           Y           Z
 ---------------------------------------------------------------------
      1          7           0       -0.283678    0.652796    0.004052
      2          7           0       -0.955169   -0.406621    0.003221
      3          6           0        1.081002    0.506759    0.003331
      4          6           0        1.923814   -0.666882   -0.002873
      5          6           0        1.913727    1.618855    0.008588
      6          6           0        3.246202   -0.183600   -0.001181
      7          6           0        1.707441   -2.046948   -0.010130
      8          6           0        4.350218   -1.027765   -0.006244
      9          6           0        2.803039   -2.893870   -0.015294
     10          1           0        0.699342   -2.434060   -0.011572
     11          6           0        4.109690   -2.391554   -0.013310
     12          1           0        5.360618   -0.638768   -0.004777
     13          1           0        2.648152   -3.966196   -0.020947
     14          1           0        4.946705   -3.079154   -0.017409
     15          6           0       -2.360656   -0.214694    0.000483
     16          6           0       -3.133797   -1.372578    0.035728
     17          6           0       -2.992503    1.030554   -0.038010
     18          6           0       -4.518525   -1.302653    0.036102
     19          1           0       -2.631787   -2.331394    0.063801
     20          6           0       -4.373143    1.112692   -0.038840
     21          1           0       -2.389497    1.926898   -0.067844
     22          6           0       -5.111146   -0.057248   -0.001184
     23          1           0       -5.133524   -2.192561    0.064136
     24          1           0       -4.884026    2.066534   -0.069018
     25          7           0        3.208772    1.204092    0.005849
     26          6           0        4.393382    2.041298    0.010038
     27          1           0        4.994944    1.842546    0.898302
     28          1           0        4.996409    1.849056   -0.878642
     29          1           0        4.101953    3.087347    0.013549
     30          6           0        1.523092    3.052099    0.016543
     31          1           0        1.907078    3.573347   -0.863462
     32          1           0        0.438472    3.125337    0.017600
     33          1           0        1.907908    3.563563    0.901915
     34          9           0       -6.458141    0.025427   -0.002220
 ---------------------------------------------------------------------
                    Distance matrix (angstroms):
                    1          2          3          4          5
     1  N    0.000000
     2  N    1.254299   0.000000
     3  C    1.372472   2.231649   0.000000
     4  C    2.571890   2.890729   1.444923   0.000000
     5  C    2.400391   3.511858   1.389322   2.285788   0.000000
     6  C    3.627622   4.207288   2.272599   1.407933   2.241524
     7  C    3.354605   3.127354   2.629454   1.396944   3.671650
     8  C    4.929238   5.341633   3.611458   2.453097   3.597403
     9  C    4.701812   4.506759   3.811828   2.394299   4.599580
    10  H    3.239638   2.616894   2.965519   2.149959   4.230988
    11  C    5.345096   5.439948   4.192069   2.784359   4.572320
    12  H    5.790189   6.320057   4.430283   3.436920   4.120449
    13  H    5.470954   5.065084   4.739607   3.377938   5.633209
    14  H    6.425326   6.478810   5.272842   3.867446   5.592041
    15  C    2.250864   1.418533   3.516463   4.308267   4.651056
    16  C    3.496616   2.383390   4.614920   5.106753   5.867445
    17  C    2.735362   2.493572   4.107251   5.201221   4.941595
    18  C    4.664626   3.674433   5.884705   6.473751   7.064689
    19  H    3.797707   2.553325   4.673711   4.850623   6.022393
    20  C    4.115467   3.740672   5.487862   6.543687   6.307391
    21  H    2.462312   2.740011   3.750496   5.033544   4.314912
    22  C    4.879410   4.170639   6.217783   7.061326   7.222067
    23  H    5.623226   4.544441   6.775718   7.220679   8.012099
    24  H    4.813231   4.643020   6.166011   7.336390   6.812920
    25  N    3.535695   4.464617   2.239126   2.269744   1.359845
    26  C    4.878818   5.882121   3.650578   3.665129   2.515382
    27  H    5.484436   6.423688   4.231340   4.067086   3.214891
    28  H    5.485390   6.425499   4.232027   4.066664   3.216069
    29  H    5.016063   6.146739   3.973120   4.340368   2.635304
    30  C    3.003536   4.254962   2.583481   3.740558   1.485546
    31  H    3.752547   4.978327   3.292065   4.326712   2.140223
    32  H    2.575877   3.796995   2.696294   4.072786   2.108541
    33  H    3.752569   4.976668   3.291698   4.326148   2.140083
    34  F    6.206257   5.519909   7.554495   8.410497   8.522165
                    6          7          8          9         10
     6  C    0.000000
     7  C    2.416595   0.000000
     8  C    1.389781   2.832493   0.000000
     9  C    2.746299   1.384788   2.424086   0.000000
    10  H    3.398702   1.079871   3.912364   2.153365   0.000000
    11  C    2.370827   2.426842   1.384855   1.399879   3.410613
    12  H    2.162856   3.915189   1.082695   3.409810   4.995059
    13  H    3.829633   2.137421   3.395824   1.083469   2.478990
    14  H    3.358006   3.399755   2.136380   2.151659   4.296076
    15  C    5.606944   4.461690   6.759953   5.817386   3.780121
    16  C    6.489947   4.888196   7.492072   6.128862   3.977680
    17  C    6.355861   5.617942   7.625827   6.999280   5.063000
    18  C    7.845040   6.270468   8.873103   7.492657   5.339334
    19  H    6.258434   4.349169   7.103010   5.464428   3.333563
    20  C    7.728920   6.852565   8.982185   8.218922   6.189531
    21  H    6.018285   5.707862   7.359184   7.085548   5.344347
    22  C    8.358303   7.102965   9.511011   8.407196   6.277827
    23  H    8.617424   6.842918   9.555264   7.967884   5.838354
    24  H    8.436131   7.769919   9.739091   9.148741   7.171656
    25  N    1.388215   3.580993   2.506837   4.118053   4.419694
    26  C    2.503262   4.891671   3.069410   5.185144   5.803036
    27  H    2.823550   5.173112   3.077752   5.298372   6.129390
    28  H    2.822207   5.172086   3.074856   5.296375   6.128758
    29  H    3.381068   5.665266   4.122642   6.120700   6.485702
    30  C    3.665947   5.102448   4.963713   6.082255   5.547729
    31  H    4.080617   5.688211   5.279582   6.583846   6.186540
    32  H    4.339673   5.325747   5.705312   6.467079   5.565591
    33  H    4.080177   5.687693   5.279197   6.583386   6.185998
    34  F    9.706594   8.424460  10.859551   9.710403   7.568271
                   11         12         13         14         15
    11  C    0.000000
    12  H    2.153405   0.000000
    13  H    2.148406   4.292961   0.000000
    14  H    1.083238   2.475271   2.463778   0.000000
    15  C    6.826733   7.732913   6.257986   7.848756   0.000000
    16  C    7.314972   8.526148   6.337271   8.258919   1.392726
    17  C    7.883691   8.518355   7.535568   8.939863   1.396909
    18  C    8.696795   9.901509   7.645847   9.630649   2.416883
    19  H    6.742186   8.169959   5.527885   7.615726   2.134933
    20  C    9.178172   9.890140   8.665680  10.219178   2.411142
    21  H    7.803296   8.164000   7.752978   8.881608   2.142876
    22  C    9.511727  10.487899   8.688324  10.502026   2.754993
    23  H    9.245680  10.608772   7.981698  10.119472   3.406583
    24  H   10.038156  10.596014   9.650381  11.096127   3.402386
    25  N    3.706844   2.833141   5.200663   4.622461   5.747305
    26  C    4.441982   2.849301   6.255939   5.150335   7.120858
    27  H    4.420669   2.665743   6.331977   5.006394   7.690459
    28  H    4.417900   2.661871   6.329858   5.003144   7.691445
    29  H    5.478972   3.933002   7.201888   6.224171   7.257338
    30  C    6.027001   5.324430   7.107998   7.022431   5.075007
    31  H    6.415162   5.514181   7.622580   7.362806   5.771413
    32  H    6.626831   6.196492   7.427921   7.669491   4.357891
    33  H    6.414741   5.513881   7.622133   7.362414   5.771347
    34  F   10.840709  11.837408   9.942735  11.819863   4.104516
                   16         17         18         19         20
    16  C    0.000000
    17  C    2.408411   0.000000
    18  C    1.386492   2.788923   0.000000
    19  H    1.082650   3.382776   2.149152   0.000000
    20  C    2.778148   1.383081   2.420877   3.860646   0.000000
    21  H    3.383970   1.080712   3.869569   4.267211   2.144440
    22  C    2.375156   2.381873   1.379719   3.364994   1.383772
    23  H    2.161501   3.870772   1.082103   2.505586   3.393152
    24  H    3.860280   2.156867   3.390584   4.942873   1.082463
    25  N    6.846043   6.203858   8.123780   6.827529   7.582598
    26  C    8.265206   7.454878   9.518654   8.275042   8.815705
    27  H    8.783933   8.083027  10.056926   8.734139   9.443091
    28  H    8.792909   8.074610  10.064989   8.749499   9.435889
    29  H    8.499853   7.386769   9.673947   8.643410   8.702256
    30  C    6.423764   4.947749   7.447509   6.800533   6.207250
    31  H    7.119069   5.581493   8.116216   7.505137   6.795293
    32  H    5.743925   4.020298   6.646748   6.261353   5.215895
    33  H    7.108766   5.595858   8.107326   7.487442   6.807598
    34  F    3.606539   3.608630   2.351037   4.494435   2.351745
                   21         22         23         24         25
    21  H    0.000000
    22  C    3.368776   0.000000
    23  H    4.951469   2.136429   0.000000
    24  H    2.498434   2.136969   4.268474   0.000000
    25  N    5.645219   8.414990   9.007472   8.138967   0.000000
    26  C    6.784291   9.733451  10.425470   9.277779   1.450597
    27  H    7.447854  10.322371  10.934523   9.928742   2.096308
    28  H    7.430684  10.323110  10.947102   9.915936   2.096175
    29  H    6.594861   9.734983  10.638328   9.044153   2.084342
    30  C    4.072045   7.326764   8.474624   6.483041   2.501352
    31  H    4.669514   7.948598   9.147470   7.001480   2.839626
    32  H    3.072615   6.397457   7.702554   5.427481   3.371332
    33  H    4.699659   7.949401   9.133269   7.022405   2.839416
    34  F    4.491521   1.349530   2.584276   2.578453   9.738507
                   26         27         28         29         30
    26  C    0.000000
    27  H    1.091051   0.000000
    28  H    1.091032   1.776957   0.000000
    29  H    1.085892   1.769110   1.769017   0.000000
    30  C    3.043078   3.780777   3.783200   2.579104   0.000000
    31  H    3.048259   3.954036   3.537990   2.413052   1.092499
    32  H    4.100794   4.814834   4.817357   3.663680   1.087090
    33  H    3.048002   3.534360   3.955851   2.414500   1.092503
    34  F   11.037184  11.631252  11.631872  10.995053   8.535876
                   31         32         33         34
    31  H    0.000000
    32  H    1.770250   0.000000
    33  H    1.765404   1.770112   0.000000
    34  F    9.127232   7.561290   9.128343   0.000000
 Stoichiometry    C16H14FN3
 Framework group  C1[X(C16H14FN3)]
 Deg. of freedom    96
 Full point group                 C1      NOp   1
 Largest Abelian subgroup         C1      NOp   1
 Largest concise Abelian subgroup C1      NOp   1
                         Standard orientation:                         
 ---------------------------------------------------------------------
 Center     Atomic      Atomic             Coordinates (Angstroms)
 Number     Number       Type             X           Y           Z
 ---------------------------------------------------------------------
      1          7           0       -0.283678    0.652796    0.004052
      2          7           0       -0.955169   -0.406621    0.003221
      3          6           0        1.081002    0.506759    0.003331
      4          6           0        1.923814   -0.666882   -0.002873
      5          6           0        1.913727    1.618855    0.008588
      6          6           0        3.246202   -0.183600   -0.001181
      7          6           0        1.707441   -2.046948   -0.010130
      8          6           0        4.350218   -1.027765   -0.006244
      9          6           0        2.803039   -2.893870   -0.015294
     10          1           0        0.699342   -2.434060   -0.011572
     11          6           0        4.109690   -2.391554   -0.013310
     12          1           0        5.360618   -0.638768   -0.004777
     13          1           0        2.648152   -3.966196   -0.020947
     14          1           0        4.946705   -3.079154   -0.017409
     15          6           0       -2.360656   -0.214694    0.000483
     16          6           0       -3.133797   -1.372578    0.035728
     17          6           0       -2.992503    1.030554   -0.038010
     18          6           0       -4.518525   -1.302653    0.036102
     19          1           0       -2.631787   -2.331394    0.063801
     20          6           0       -4.373143    1.112692   -0.038840
     21          1           0       -2.389497    1.926898   -0.067844
     22          6           0       -5.111146   -0.057248   -0.001184
     23          1           0       -5.133524   -2.192561    0.064136
     24          1           0       -4.884026    2.066534   -0.069018
     25          7           0        3.208772    1.204092    0.005849
     26          6           0        4.393382    2.041298    0.010038
     27          1           0        4.994944    1.842546    0.898302
     28          1           0        4.996409    1.849056   -0.878642
     29          1           0        4.101953    3.087347    0.013549
     30          6           0        1.523092    3.052099    0.016543
     31          1           0        1.907078    3.573347   -0.863462
     32          1           0        0.438472    3.125337    0.017600
     33          1           0        1.907908    3.563563    0.901915
     34          9           0       -6.458141    0.025427   -0.002220
 ---------------------------------------------------------------------
 Rotational constants (GHZ):           0.7908525           0.1541435           0.1292154
 Leave Link  202 at Thu Jan 30 16:30:34 2025, MaxMem= 25501368320 cpu:               0.2 elap:               0.0
 (Enter /share/Apps/gaussian/g16/l301.exe)
 Standard basis: 6-311G(d,p) (5D, 7F)
 Ernie: Thresh=  0.10000D-02 Tol=  0.10000D-05 Strict=F.
 There are   464 symmetry adapted cartesian basis functions of A   symmetry.
 There are   444 symmetry adapted basis functions of A   symmetry.
   444 basis functions,   752 primitive gaussians,   464 cartesian basis functions
    70 alpha electrons       70 beta electrons
       nuclear repulsion energy      1401.7465844607 Hartrees.
 IExCor=20419 DFT=T Ex+Corr=CAM-B3LYP ExCW=0 ScaHFX=  1.000000
 ScaDFX=  1.000000  1.000000  1.000000  0.810000 ScalE2=  1.000000  1.000000
 IRadAn=      5 IRanWt=     -1 IRanGd=            0 ICorTp=0 IEmpDi=  4
 HFx  wShort=  0.000000 wLong=  0.330000 cFull=  0.190000 cShort=  0.000000 cLong=  0.460000
 DFx  wShort=  0.000000 wLong=  0.330000 cFull=  0.190000 cShort=  0.000000 cLong=  0.460000
 NAtoms=   34 NActive=   34 NUniq=   34 SFac= 1.00D+00 NAtFMM=   60 NAOKFM=F Big=F
 Integral buffers will be    131072 words long.
 Raffenetti 1 integral format.
 Two-electron integral symmetry is turned on.
 ------------------------------------------------------------------------------
 Polarizable Continuum Model (PCM)
 =================================
 Model                : PCM.
 Atomic radii         : UFF (Universal Force Field).
 Polarization charges : Total charges.
 Charge compensation  : None.
 Solution method      : On-the-fly selection.
 Cavity type          : Scaled VdW (van der Waals Surface) (Alpha=1.100).
 Cavity algorithm     : GePol (No added spheres)
                        Default sphere list used, NSphG=   34.
                        Lebedev-Laikov grids with approx.  5.0 points / Ang**2.
                        Smoothing algorithm: York/Karplus (Gamma=1.0000).
                        Polarization charges: spherical gaussians, with
                                              point-specific exponents (IZeta= 3).
                        Self-potential: point-specific (ISelfS= 7).
                        Self-field    : sphere-specific E.n sum rule (ISelfD= 2).
 Solvent              : Acetonitrile, Eps=  35.688000 Eps(inf)=   1.806874
 ------------------------------------------------------------------------------
 GePol: Number of generator spheres                  =      34
 GePol: Total number of spheres                      =      34
 GePol: Number of exposed spheres                    =      34 (100.00%)
 GePol: Number of points                             =    2681
 GePol: Average weight of points                     =       0.13
 GePol: Minimum weight of points                     =   0.11D-10
 GePol: Maximum weight of points                     =    0.20577
 GePol: Number of points with low weight             =     158
 GePol: Fraction of low-weight points (<1% of avg)   =       5.89%
 GePol: Cavity surface area                          =    342.315 Ang**2
 GePol: Cavity volume                                =    367.394 Ang**3
 Leave Link  301 at Thu Jan 30 16:30:35 2025, MaxMem= 25501368320 cpu:               5.0 elap:               0.2
 (Enter /share/Apps/gaussian/g16/l302.exe)
 NPDir=0 NMtPBC=     1 NCelOv=     1 NCel=       1 NClECP=     1 NCelD=      1
         NCelK=      1 NCelE2=     1 NClLst=     1 CellRange=     0.0.
 One-electron integrals computed using PRISM.
 One-electron integral symmetry used in STVInt
 NBasis=   444 RedAO= T EigKep=  1.26D-04  NBF=   444
 NBsUse=   444 1.00D-06 EigRej= -1.00D+00 NBFU=   444
 Precomputing XC quadrature grid using
 IXCGrd= 4 IRadAn=           5 IRanWt=          -1 IRanGd=           0 AccXCQ= 0.00D+00.
 Generated NRdTot=       0 NPtTot=           0 NUsed=           0 NTot=          32
 NSgBfM=   453   453   453   453   453 MxSgAt=    34 MxSgA2=    34.
 Leave Link  302 at Thu Jan 30 16:30:35 2025, MaxMem= 25501368320 cpu:              12.3 elap:               0.4
 (Enter /share/Apps/gaussian/g16/l303.exe)
 DipDrv:  MaxL=1.
 Leave Link  303 at Thu Jan 30 16:30:35 2025, MaxMem= 25501368320 cpu:               1.5 elap:               0.1
 (Enter /share/Apps/gaussian/g16/l308.exe)
 Leave Link  308 at Thu Jan 30 16:30:36 2025, MaxMem= 25501368320 cpu:               3.0 elap:               0.1
 (Enter /share/Apps/gaussian/g16/l401.exe)
 ExpMin= 1.03D-01 ExpMax= 1.14D+04 ExpMxC= 1.72D+03 IAcc=3 IRadAn=         5 AccDes= 0.00D+00
 Harris functional with IExCor=20419 and IRadAn=       5 diagonalized for initial guess.
 HarFok:  IExCor=20419 AccDes= 0.00D+00 IRadAn=         5 IDoV= 1 UseB2=F ITyADJ=14
 ICtDFT=  3500011 ScaDFX=  1.000000  1.000000  1.000000  1.000000
 FoFCou: FMM=F IPFlag=           0 FMFlag=      100000 FMFlg1=           0
         NFxFlg=           0 DoJE=T BraDBF=F KetDBF=T FulRan=T
         wScrn=  0.000000 ICntrl=       500 IOpCl=  0 I1Cent=   200000004 NGrid=           0
         NMat0=    1 NMatS0=      1 NMatT0=    0 NMatD0=    1 NMtDS0=    0 NMtDT0=    0
 Petite list used in FoFCou.
 Harris En= -848.219570060357    
 JPrj=0 DoOrth=F DoCkMO=F.
 Leave Link  401 at Thu Jan 30 16:30:36 2025, MaxMem= 25501368320 cpu:              24.6 elap:               0.7
 (Enter /share/Apps/gaussian/g16/l502.exe)
 Integral symmetry usage will be decided dynamically.
 Closed shell SCF:
 Using DIIS extrapolation, IDIIS=  1040.
 NGot= 25501368320 LenX= 25500915638 LenY= 25500699878
 Requested convergence on RMS density matrix=1.00D-08 within 128 cycles.
 Requested convergence on MAX density matrix=1.00D-06.
 Requested convergence on             energy=1.00D-06.
 No special actions if energy rises.
 Fock matrices will be formed incrementally for  20 cycles.

 Cycle   1  Pass 1  IDiag  1:
 FoFJK:  IHMeth= 1 ICntrl=       0 DoSepK=T KAlg= 0 I1Cent=           0 FoldK=F
 IRaf=         1 NMat=       1 IRICut=       1 DoRegI=T DoRafI=F ISym2E= 0 IDoP0=0 IntGTp=1.
 FoFCou: FMM=F IPFlag=           0 FMFlag=      100000 FMFlg1=           0
         NFxFlg=           0 DoJE=T BraDBF=F KetDBF=F FulRan=T
         wScrn=  0.000000 ICntrl=       500 IOpCl=  0 I1Cent=           0 NGrid=           0
         NMat0=    1 NMatS0=      1 NMatT0=    0 NMatD0=    1 NMtDS0=    0 NMtDT0=    0
 Symmetry not used in FoFCou.
 Inv3:  Mode=1 IEnd=    21563283.
 Iteration    1 A*A^-1 deviation from unit magnitude is 4.00D-15 for    893.
 Iteration    1 A*A^-1 deviation from orthogonality  is 3.70D-15 for   1969    769.
 Iteration    1 A^-1*A deviation from unit magnitude is 4.00D-15 for    893.
 Iteration    1 A^-1*A deviation from orthogonality  is 2.35D-15 for   2368    419.
 E= -881.642879766999    
 DIIS: error= 8.36D-02 at cycle   1 NSaved=   1.
 NSaved= 1 IEnMin= 1 EnMin= -881.642879766999     IErMin= 1 ErrMin= 8.36D-02
 ErrMax= 8.36D-02  0.00D+00 EMaxC= 1.00D-01 BMatC= 1.62D+00 BMatP= 1.62D+00
 IDIUse=3 WtCom= 1.64D-01 WtEn= 8.36D-01
 Coeff-Com:  0.100D+01
 Coeff-En:   0.100D+01
 Coeff:      0.100D+01
 Gap=     0.321 Goal=   None    Shift=    0.000
 GapD=    0.321 DampG=1.000 DampE=0.500 DampFc=0.5000 IDamp=-1.
 Damping current iteration by 5.00D-01
 RMSDP=3.81D-03 MaxDP=2.12D-01              OVMax= 1.45D-01

 Cycle   2  Pass 1  IDiag  1:
 RMSU=  1.63D-03    CP:  9.10D-01
 E= -881.796008916769     Delta-E=       -0.153129149769 Rises=F Damp=T
 DIIS: error= 3.80D-02 at cycle   2 NSaved=   2.
 NSaved= 2 IEnMin= 2 EnMin= -881.796008916769     IErMin= 2 ErrMin= 3.80D-02
 ErrMax= 3.80D-02  0.00D+00 EMaxC= 1.00D-01 BMatC= 3.07D-01 BMatP= 1.62D+00
 IDIUse=3 WtCom= 6.20D-01 WtEn= 3.80D-01
 Coeff-Com: -0.396D+00 0.140D+01
 Coeff-En:   0.000D+00 0.100D+01
 Coeff:     -0.245D+00 0.125D+01
 Gap=     0.272 Goal=   None    Shift=    0.000
 RMSDP=7.80D-04 MaxDP=3.61D-02 DE=-1.53D-01 OVMax= 1.28D-01

 Cycle   3  Pass 1  IDiag  1:
 RMSU=  7.47D-04    CP:  9.24D-01  8.98D-01
 E= -881.926088193426     Delta-E=       -0.130079276657 Rises=F Damp=F
 DIIS: error= 1.82D-02 at cycle   3 NSaved=   3.
 NSaved= 3 IEnMin= 3 EnMin= -881.926088193426     IErMin= 3 ErrMin= 1.82D-02
 ErrMax= 1.82D-02  0.00D+00 EMaxC= 1.00D-01 BMatC= 7.23D-02 BMatP= 3.07D-01
 IDIUse=3 WtCom= 8.18D-01 WtEn= 1.82D-01
 Coeff-Com: -0.263D+00 0.580D+00 0.683D+00
 Coeff-En:   0.000D+00 0.000D+00 0.100D+01
 Coeff:     -0.215D+00 0.475D+00 0.740D+00
 Gap=     0.227 Goal=   None    Shift=    0.000
 RMSDP=9.51D-04 MaxDP=5.55D-02 DE=-1.30D-01 OVMax= 4.88D-02

 Cycle   4  Pass 1  IDiag  1:
 RMSU=  1.73D-04    CP:  8.80D-01  1.37D+00  7.10D-01
 E= -881.973301710495     Delta-E=       -0.047213517069 Rises=F Damp=F
 DIIS: error= 4.92D-03 at cycle   4 NSaved=   4.
 NSaved= 4 IEnMin= 4 EnMin= -881.973301710495     IErMin= 4 ErrMin= 4.92D-03
 ErrMax= 4.92D-03  0.00D+00 EMaxC= 1.00D-01 BMatC= 6.56D-03 BMatP= 7.23D-02
 IDIUse=3 WtCom= 9.51D-01 WtEn= 4.92D-02
 Coeff-Com: -0.106D+00 0.235D+00 0.400D+00 0.471D+00
 Coeff-En:   0.000D+00 0.000D+00 0.000D+00 0.100D+01
 Coeff:     -0.101D+00 0.224D+00 0.380D+00 0.497D+00
 Gap=     0.219 Goal=   None    Shift=    0.000
 RMSDP=1.41D-04 MaxDP=1.05D-02 DE=-4.72D-02 OVMax= 1.36D-02

 Cycle   5  Pass 1  IDiag  1:
 RMSU=  1.04D-04    CP:  8.82D-01  1.33D+00  7.76D-01  8.63D-01
 E= -881.977897303914     Delta-E=       -0.004595593419 Rises=F Damp=F
 DIIS: error= 7.88D-04 at cycle   5 NSaved=   5.
 NSaved= 5 IEnMin= 5 EnMin= -881.977897303914     IErMin= 5 ErrMin= 7.88D-04
 ErrMax= 7.88D-04  0.00D+00 EMaxC= 1.00D-01 BMatC= 6.43D-05 BMatP= 6.56D-03
 IDIUse=3 WtCom= 9.92D-01 WtEn= 7.88D-03
 Coeff-Com:  0.547D-02-0.120D-01 0.153D-01 0.135D+00 0.856D+00
 Coeff-En:   0.000D+00 0.000D+00 0.000D+00 0.000D+00 0.100D+01
 Coeff:      0.543D-02-0.119D-01 0.152D-01 0.134D+00 0.857D+00
 Gap=     0.220 Goal=   None    Shift=    0.000
 RMSDP=2.93D-05 MaxDP=1.15D-03 DE=-4.60D-03 OVMax= 4.99D-03

 Cycle   6  Pass 1  IDiag  1:
 RMSU=  2.27D-05    CP:  8.82D-01  1.33D+00  7.89D-01  9.50D-01  1.02D+00
 E= -881.977980655130     Delta-E=       -0.000083351215 Rises=F Damp=F
 DIIS: error= 2.54D-04 at cycle   6 NSaved=   6.
 NSaved= 6 IEnMin= 6 EnMin= -881.977980655130     IErMin= 6 ErrMin= 2.54D-04
 ErrMax= 2.54D-04  0.00D+00 EMaxC= 1.00D-01 BMatC= 1.86D-05 BMatP= 6.43D-05
 IDIUse=3 WtCom= 9.97D-01 WtEn= 2.54D-03
 Coeff-Com:  0.141D-01-0.313D-01-0.373D-01 0.693D-02 0.430D+00 0.618D+00
 Coeff-En:   0.000D+00 0.000D+00 0.000D+00 0.000D+00 0.000D+00 0.100D+01
 Coeff:      0.141D-01-0.312D-01-0.372D-01 0.691D-02 0.429D+00 0.619D+00
 Gap=     0.220 Goal=   None    Shift=    0.000
 RMSDP=2.57D-05 MaxDP=1.94D-03 DE=-8.34D-05 OVMax= 1.22D-03

 Cycle   7  Pass 1  IDiag  1:
 RMSU=  6.65D-06    CP:  8.81D-01  1.34D+00  7.89D-01  9.90D-01  1.17D+00
                    CP:  9.74D-01
 E= -881.978000621533     Delta-E=       -0.000019966403 Rises=F Damp=F
 DIIS: error= 1.02D-04 at cycle   7 NSaved=   7.
 NSaved= 7 IEnMin= 7 EnMin= -881.978000621533     IErMin= 7 ErrMin= 1.02D-04
 ErrMax= 1.02D-04  0.00D+00 EMaxC= 1.00D-01 BMatC= 7.81D-07 BMatP= 1.86D-05
 IDIUse=3 WtCom= 9.99D-01 WtEn= 1.02D-03
 Coeff-Com:  0.283D-02-0.629D-02-0.115D-01-0.144D-01 0.197D-01 0.149D+00
 Coeff-Com:  0.861D+00
 Coeff-En:   0.000D+00 0.000D+00 0.000D+00 0.000D+00 0.000D+00 0.000D+00
 Coeff-En:   0.100D+01
 Coeff:      0.283D-02-0.628D-02-0.115D-01-0.144D-01 0.197D-01 0.148D+00
 Coeff:      0.861D+00
 Gap=     0.221 Goal=   None    Shift=    0.000
 RMSDP=7.07D-06 MaxDP=4.43D-04 DE=-2.00D-05 OVMax= 8.33D-04

 Cycle   8  Pass 1  IDiag  1:
 RMSU=  2.25D-06    CP:  8.81D-01  1.34D+00  7.89D-01  1.00D+00  1.21D+00
                    CP:  1.09D+00  1.10D+00
 E= -881.978002386297     Delta-E=       -0.000001764764 Rises=F Damp=F
 DIIS: error= 2.34D-05 at cycle   8 NSaved=   8.
 NSaved= 8 IEnMin= 8 EnMin= -881.978002386297     IErMin= 8 ErrMin= 2.34D-05
 ErrMax= 2.34D-05  0.00D+00 EMaxC= 1.00D-01 BMatC= 2.61D-07 BMatP= 7.81D-07
 IDIUse=1 WtCom= 1.00D+00 WtEn= 0.00D+00
 Coeff-Com: -0.795D-03 0.177D-02 0.452D-03-0.676D-02-0.460D-01-0.338D-01
 Coeff-Com:  0.375D+00 0.710D+00
 Coeff:     -0.795D-03 0.177D-02 0.452D-03-0.676D-02-0.460D-01-0.338D-01
 Coeff:      0.375D+00 0.710D+00
 Gap=     0.221 Goal=   None    Shift=    0.000
 RMSDP=2.81D-06 MaxDP=1.98D-04 DE=-1.76D-06 OVMax= 2.88D-04

 Cycle   9  Pass 1  IDiag  1:
 RMSU=  1.11D-06    CP:  8.81D-01  1.34D+00  7.88D-01  1.01D+00  1.22D+00
                    CP:  1.11D+00  1.20D+00  9.47D-01
 E= -881.978002730334     Delta-E=       -0.000000344037 Rises=F Damp=F
 DIIS: error= 8.36D-06 at cycle   9 NSaved=   9.
 NSaved= 9 IEnMin= 9 EnMin= -881.978002730334     IErMin= 9 ErrMin= 8.36D-06
 ErrMax= 8.36D-06  0.00D+00 EMaxC= 1.00D-01 BMatC= 1.95D-08 BMatP= 2.61D-07
 IDIUse=1 WtCom= 1.00D+00 WtEn= 0.00D+00
 Coeff-Com: -0.482D-03 0.107D-02 0.116D-02-0.895D-03-0.151D-01-0.332D-01
 Coeff-Com:  0.229D-01 0.224D+00 0.801D+00
 Coeff:     -0.482D-03 0.107D-02 0.116D-02-0.895D-03-0.151D-01-0.332D-01
 Coeff:      0.229D-01 0.224D+00 0.801D+00
 Gap=     0.221 Goal=   None    Shift=    0.000
 RMSDP=8.85D-07 MaxDP=5.47D-05 DE=-3.44D-07 OVMax= 1.00D-04

 Cycle  10  Pass 1  IDiag  1:
 RMSU=  3.04D-07    CP:  8.81D-01  1.34D+00  7.88D-01  1.01D+00  1.23D+00
                    CP:  1.12D+00  1.24D+00  1.08D+00  1.04D+00
 E= -881.978002763505     Delta-E=       -0.000000033171 Rises=F Damp=F
 DIIS: error= 6.83D-06 at cycle  10 NSaved=  10.
 NSaved=10 IEnMin=10 EnMin= -881.978002763505     IErMin=10 ErrMin= 6.83D-06
 ErrMax= 6.83D-06  0.00D+00 EMaxC= 1.00D-01 BMatC= 4.00D-09 BMatP= 1.95D-08
 IDIUse=1 WtCom= 1.00D+00 WtEn= 0.00D+00
 Coeff-Com: -0.132D-03 0.291D-03 0.444D-03 0.181D-03-0.168D-02-0.127D-01
 Coeff-Com: -0.258D-01 0.232D-01 0.356D+00 0.660D+00
 Coeff:     -0.132D-03 0.291D-03 0.444D-03 0.181D-03-0.168D-02-0.127D-01
 Coeff:     -0.258D-01 0.232D-01 0.356D+00 0.660D+00
 Gap=     0.221 Goal=   None    Shift=    0.000
 RMSDP=3.05D-07 MaxDP=1.81D-05 DE=-3.32D-08 OVMax= 2.81D-05

 Cycle  11  Pass 1  IDiag  1:
 RMSU=  1.52D-07    CP:  8.81D-01  1.34D+00  7.88D-01  1.01D+00  1.23D+00
                    CP:  1.12D+00  1.25D+00  1.10D+00  1.13D+00  8.27D-01
 E= -881.978002768338     Delta-E=       -0.000000004832 Rises=F Damp=F
 DIIS: error= 1.52D-06 at cycle  11 NSaved=  11.
 NSaved=11 IEnMin=11 EnMin= -881.978002768338     IErMin=11 ErrMin= 1.52D-06
 ErrMax= 1.52D-06  0.00D+00 EMaxC= 1.00D-01 BMatC= 7.01D-10 BMatP= 4.00D-09
 IDIUse=1 WtCom= 1.00D+00 WtEn= 0.00D+00
 Coeff-Com:  0.110D-04-0.270D-04 0.151D-04 0.182D-03 0.178D-02-0.847D-03
 Coeff-Com: -0.143D-01-0.293D-01 0.317D-01 0.315D+00 0.695D+00
 Coeff:      0.110D-04-0.270D-04 0.151D-04 0.182D-03 0.178D-02-0.847D-03
 Coeff:     -0.143D-01-0.293D-01 0.317D-01 0.315D+00 0.695D+00
 Gap=     0.221 Goal=   None    Shift=    0.000
 RMSDP=1.16D-07 MaxDP=6.55D-06 DE=-4.83D-09 OVMax= 1.73D-05

 Cycle  12  Pass 1  IDiag  1:
 RMSU=  5.84D-08    CP:  8.81D-01  1.34D+00  7.88D-01  1.01D+00  1.23D+00
                    CP:  1.12D+00  1.25D+00  1.11D+00  1.16D+00  1.01D+00
                    CP:  8.54D-01
 E= -881.978002769242     Delta-E=       -0.000000000905 Rises=F Damp=F
 DIIS: error= 5.06D-07 at cycle  12 NSaved=  12.
 NSaved=12 IEnMin=12 EnMin= -881.978002769242     IErMin=12 ErrMin= 5.06D-07
 ErrMax= 5.06D-07  0.00D+00 EMaxC= 1.00D-01 BMatC= 1.17D-10 BMatP= 7.01D-10
 IDIUse=1 WtCom= 1.00D+00 WtEn= 0.00D+00
 Coeff-Com:  0.214D-04-0.484D-04-0.538D-04 0.610D-04 0.118D-02 0.117D-02
 Coeff-Com: -0.296D-02-0.182D-01-0.308D-01 0.635D-01 0.342D+00 0.644D+00
 Coeff:      0.214D-04-0.484D-04-0.538D-04 0.610D-04 0.118D-02 0.117D-02
 Coeff:     -0.296D-02-0.182D-01-0.308D-01 0.635D-01 0.342D+00 0.644D+00
 Gap=     0.221 Goal=   None    Shift=    0.000
 RMSDP=3.92D-08 MaxDP=1.82D-06 DE=-9.05D-10 OVMax= 4.96D-06

 Cycle  13  Pass 1  IDiag  1:
 RMSU=  2.28D-08    CP:  8.81D-01  1.34D+00  7.88D-01  1.01D+00  1.23D+00
                    CP:  1.12D+00  1.25D+00  1.11D+00  1.17D+00  1.02D+00
                    CP:  1.04D+00  9.34D-01
 E= -881.978002769396     Delta-E=       -0.000000000153 Rises=F Damp=F
 DIIS: error= 3.42D-07 at cycle  13 NSaved=  13.
 NSaved=13 IEnMin=13 EnMin= -881.978002769396     IErMin=13 ErrMin= 3.42D-07
 ErrMax= 3.42D-07  0.00D+00 EMaxC= 1.00D-01 BMatC= 1.06D-11 BMatP= 1.17D-10
 IDIUse=1 WtCom= 1.00D+00 WtEn= 0.00D+00
 Coeff-Com:  0.343D-05-0.740D-05-0.223D-04-0.255D-04 0.622D-05 0.536D-03
 Coeff-Com:  0.252D-02-0.571D-03-0.177D-01-0.546D-01-0.296D-01 0.173D+00
 Coeff-Com:  0.927D+00
 Coeff:      0.343D-05-0.740D-05-0.223D-04-0.255D-04 0.622D-05 0.536D-03
 Coeff:      0.252D-02-0.571D-03-0.177D-01-0.546D-01-0.296D-01 0.173D+00
 Coeff:      0.927D+00
 Gap=     0.221 Goal=   None    Shift=    0.000
 RMSDP=2.30D-08 MaxDP=1.26D-06 DE=-1.53D-10 OVMax= 5.30D-06

 Cycle  14  Pass 1  IDiag  1:
 RMSU=  7.67D-09    CP:  8.81D-01  1.34D+00  7.88D-01  1.01D+00  1.23D+00
                    CP:  1.12D+00  1.25D+00  1.11D+00  1.17D+00  1.04D+00
                    CP:  1.11D+00  1.11D+00  1.18D+00
 E= -881.978002769431     Delta-E=       -0.000000000036 Rises=F Damp=F
 DIIS: error= 9.28D-08 at cycle  14 NSaved=  14.
 NSaved=14 IEnMin=14 EnMin= -881.978002769431     IErMin=14 ErrMin= 9.28D-08
 ErrMax= 9.28D-08  0.00D+00 EMaxC= 1.00D-01 BMatC= 2.04D-12 BMatP= 1.06D-11
 IDIUse=1 WtCom= 1.00D+00 WtEn= 0.00D+00
 Coeff-Com: -0.120D-05 0.276D-05-0.149D-05-0.178D-04-0.121D-03 0.391D-04
 Coeff-Com:  0.125D-02 0.182D-02-0.171D-02-0.246D-01-0.393D-01-0.401D-01
 Coeff-Com:  0.307D+00 0.796D+00
 Coeff:     -0.120D-05 0.276D-05-0.149D-05-0.178D-04-0.121D-03 0.391D-04
 Coeff:      0.125D-02 0.182D-02-0.171D-02-0.246D-01-0.393D-01-0.401D-01
 Coeff:      0.307D+00 0.796D+00
 Gap=     0.221 Goal=   None    Shift=    0.000
 RMSDP=7.39D-09 MaxDP=2.41D-07 DE=-3.57D-11 OVMax= 1.47D-06

 Error on total polarization charges =  0.01381
 SCF Done:  E(RCAM-B3LYP) =  -881.978002769     A.U. after   14 cycles
            NFock= 14  Conv=0.74D-08     -V/T= 2.0031
 KE= 8.792596984074D+02 PE=-4.861362543386D+03 EE= 1.698378257749D+03
 Leave Link  502 at Thu Jan 30 16:31:11 2025, MaxMem= 25501368320 cpu:            1192.0 elap:              34.0
 (Enter /share/Apps/gaussian/g16/l801.exe)
 DoSCS=F DFT=T ScalE2(SS,OS)=  1.000000  1.000000
 ExpMin= 1.03D-01 ExpMax= 1.14D+04 ExpMxC= 1.72D+03 IAcc=3 IRadAn=         5 AccDes= 0.00D+00
 HarFok:  IExCor=  205 AccDes= 0.00D+00 IRadAn=         5 IDoV=-2 UseB2=F ITyADJ=14
 ICtDFT= 12500011 ScaDFX=  1.000000  1.000000  1.000000  1.000000
 Largest valence mixing into a core orbital is  5.12D-05
 Largest core mixing into a valence orbital is  1.78D-05
 Range of M.O.s used for correlation:    21   444
 NBasis=   444 NAE=    70 NBE=    70 NFC=    20 NFV=     0
 NROrb=    424 NOA=    50 NOB=    50 NVA=   374 NVB=   374

 **** Warning!!: The largest alpha MO coefficient is  0.21387886D+02

 Leave Link  801 at Thu Jan 30 16:31:11 2025, MaxMem= 25501368320 cpu:               5.8 elap:               0.2
 (Enter /share/Apps/gaussian/g16/l914.exe)
 RHF ground state
 Two-electron integrals replicated using symmetry.
 MDV= 25501368320 DFT=T DoStab=F Mixed=T DoRPA=T DoScal=F NonHer=T
 NEqPCM:  Using non-equilibrium solvation (IEInf=1, Eps=  35.6880, EpsInf=   1.8069)
 Inv3:  Mode=1 IEnd=    21563283.
 Iteration    1 A*A^-1 deviation from unit magnitude is 4.11D-15 for   1263.
 Iteration    1 A*A^-1 deviation from orthogonality  is 2.07D-15 for   2496    423.
 Iteration    1 A^-1*A deviation from unit magnitude is 4.11D-15 for   1263.
 Iteration    1 A^-1*A deviation from orthogonality  is 1.82D-15 for   1440    345.
 Making orbital integer symmetry assigments:
 Orbital symmetries:
       Occupied  (A) (A) (A) (A) (A) (A) (A) (A) (A) (A) (A) (A)
                 (A) (A) (A) (A) (A) (A) (A) (A) (A) (A) (A) (A)
                 (A) (A) (A) (A) (A) (A) (A) (A) (A) (A) (A) (A)
                 (A) (A) (A) (A) (A) (A) (A) (A) (A) (A) (A) (A)
                 (A) (A) (A) (A) (A) (A) (A) (A) (A) (A) (A) (A)
                 (A) (A) (A) (A) (A) (A) (A) (A) (A) (A)
       Virtual   (A) (A) (A) (A) (A) (A) (A) (A) (A) (A) (A) (A)
                 (A) (A) (A) (A) (A) (A) (A) (A) (A) (A) (A) (A)
                 (A) (A) (A) (A) (A) (A) (A) (A) (A) (A) (A) (A)
                 (A) (A) (A) (A) (A) (A) (A) (A) (A) (A) (A) (A)
                 (A) (A) (A) (A) (A) (A) (A) (A) (A) (A) (A) (A)
                 (A) (A) (A) (A) (A) (A) (A) (A) (A) (A) (A) (A)
                 (A) (A) (A) (A) (A) (A) (A) (A) (A) (A) (A) (A)
                 (A) (A) (A) (A) (A) (A) (A) (A) (A) (A) (A) (A)
                 (A) (A) (A) (A) (A) (A) (A) (A) (A) (A) (A) (A)
                 (A) (A) (A) (A) (A) (A) (A) (A) (A) (A) (A) (A)
                 (A) (A) (A) (A) (A) (A) (A) (A) (A) (A) (A) (A)
                 (A) (A) (A) (A) (A) (A) (A) (A) (A) (A) (A) (A)
                 (A) (A) (A) (A) (A) (A) (A) (A) (A) (A) (A) (A)
                 (A) (A) (A) (A) (A) (A) (A) (A) (A) (A) (A) (A)
                 (A) (A) (A) (A) (A) (A) (A) (A) (A) (A) (A) (A)
                 (A) (A) (A) (A) (A) (A) (A) (A) (A) (A) (A) (A)
                 (A) (A) (A) (A) (A) (A) (A) (A) (A) (A) (A) (A)
                 (A) (A) (A) (A) (A) (A) (A) (A) (A) (A) (A) (A)
                 (A) (A) (A) (A) (A) (A) (A) (A) (A) (A) (A) (A)
                 (A) (A) (A) (A) (A) (A) (A) (A) (A) (A) (A) (A)
                 (A) (A) (A) (A) (A) (A) (A) (A) (A) (A) (A) (A)
                 (A) (A) (A) (A) (A) (A) (A) (A) (A) (A) (A) (A)
                 (A) (A) (A) (A) (A) (A) (A) (A) (A) (A) (A) (A)
                 (A) (A) (A) (A) (A) (A) (A) (A) (A) (A) (A) (A)
                 (A) (A) (A) (A) (A) (A) (A) (A) (A) (A) (A) (A)
                 (A) (A) (A) (A) (A) (A) (A) (A) (A) (A) (A) (A)
                 (A) (A) (A) (A) (A) (A) (A) (A) (A) (A) (A) (A)
                 (A) (A) (A) (A) (A) (A) (A) (A) (A) (A) (A) (A)
                 (A) (A) (A) (A) (A) (A) (A) (A) (A) (A) (A) (A)
                 (A) (A) (A) (A) (A) (A) (A) (A) (A) (A) (A) (A)
                 (A) (A) (A) (A) (A) (A) (A) (A) (A) (A) (A) (A)
                 (A) (A)
    80 initial guesses have been made.
 Convergence on wavefunction:    0.001000000000000
 Davidson Disk Diagonalization:  ConvIn= 1.00D-03 SkipCon=T Conv= 1.00D-03.
 Max sub-space:  2000 roots to seek:    80 dimension of matrix:        37400
 Iteration     1 Dimension    80 NMult     0 NNew     80
 CISAX will form    80 AO SS matrices at one time.
 NMat=    80 NSing=    80 JSym2X= 0.
 FoFJK:  IHMeth= 1 ICntrl=       0 DoSepK=T KAlg= 0 I1Cent=           0 FoldK=F
 IRaf=         1 NMat=     160 IRICut=       1 DoRegI=T DoRafI=F ISym2E= 0 IDoP0=3 IntGTp=3.
 New state      1 was old state      3
 New state      2 was old state      1
 New state      3 was old state      2
 New state      4 was old state      7
 New state      5 was old state      9
 New state      6 was old state      4
 New state      7 was old state      6
 New state      8 was old state     13
 New state      9 was old state     12
 New state     10 was old state      5
 New state     12 was old state      8
 New state     13 was old state     28
 New state     14 was old state     17
 New state     15 was old state     16
 New state     16 was old state     15
 New state     17 was old state     10
 New state     18 was old state     14
 New state     20 was old state     21
 Excitation Energies [eV] at current iteration:
 Root      1 :     3.180410652642665
 Root      2 :     4.079250812832762
 Root      3 :     4.762478834386201
 Root      4 :     5.013144971012161
 Root      5 :     5.262018779551326
 Root      6 :     5.348607462146661
 Root      7 :     5.685630718665141
 Root      8 :     5.901321109729867
 Root      9 :     6.082391400490338
 Root     10 :     6.087717245658073
 Root     11 :     6.307535093856152
 Root     12 :     6.680133787763158
 Root     13 :     6.847808851874413
 Root     14 :     6.893171169081328
 Root     15 :     6.941332910168694
 Root     16 :     6.984708110107758
 Root     17 :     7.151240376431414
 Root     18 :     7.174434050032120
 Root     19 :     7.258474161216092
 Root     20 :     7.312947289008007
 Root     21 :     7.392625438015650
 Root     22 :     7.442304049912948
 Root     23 :     7.689612600121616
 Root     24 :     7.721212494605994
 Root     25 :     7.731371741210122
 Root     26 :     7.767403362925835
 Root     27 :     7.856757819373760
 Root     28 :     7.896468359848066
 Root     29 :     7.999812091353466
 Root     30 :     8.018934138980439
 Root     31 :     8.098263842419485
 Root     32 :     8.110861767092080
 Root     33 :     8.176029606926406
 Root     34 :     8.203180022905649
 Root     35 :     8.273815632357893
 Root     36 :     8.311652500641994
 Root     37 :     8.366969843808787
 Root     38 :     8.419869209322995
 Root     39 :     8.546560317287325
 Root     40 :     8.549199808524273
 Root     41 :     8.585750387205129
 Root     42 :     8.591643452086094
 Root     43 :     8.703548084014747
 Root     44 :     8.715643122187471
 Root     45 :     8.720824292647595
 Root     46 :     8.745383383288027
 Root     47 :     8.816664133558179
 Root     48 :     8.896819086135158
 Root     49 :     8.931880727026730
 Root     50 :     8.942972560144288
 Root     51 :     8.968947631172831
 Root     52 :     8.971640623473924
 Root     53 :     9.082392348708003
 Root     54 :     9.105550105869151
 Root     55 :     9.134045005763040
 Root     56 :     9.171399764637574
 Root     57 :     9.201147887916076
 Root     58 :     9.220963383393952
 Root     59 :     9.225982773506662
 Root     60 :     9.273444302815383
 Root     61 :     9.304026942517435
 Root     62 :     9.341676304343265
 Root     63 :     9.350972784901908
 Root     64 :     9.424127339224780
 Root     65 :     9.479960902158913
 Root     66 :     9.583304884547218
 Root     67 :     9.661957362958029
 Root     68 :     9.761467438106401
 Root     69 :     9.770779231226028
 Root     70 :     9.790996577070963
 Root     71 :     9.855712466887729
 Root     72 :     9.865990668623612
 Root     73 :     9.903295681937839
 Root     74 :     9.967484254874011
 Root     75 :    10.029184437110210
 Root     76 :    10.095188506240886
 Root     77 :    10.098351500062698
 Root     78 :    10.197287643292235
 Root     79 :    10.202418138087470
 Root     80 :    10.237174850249158
 Iteration     2 Dimension   120 NMult    80 NNew     40
 CISAX will form    40 AO SS matrices at one time.
 NMat=    40 NSing=    40 JSym2X= 0.
 Root      1 not converged, maximum delta is    0.029115584683212
 Root      2 not converged, maximum delta is    0.050698098222172
 Root      3 not converged, maximum delta is    0.049899636776962
 Root      4 not converged, maximum delta is    0.182905287218636
 Root      5 not converged, maximum delta is    0.269569596381132
 Root      6 not converged, maximum delta is    0.262471975539967
 Root      7 not converged, maximum delta is    0.127613496454094
 New state      8 was old state     10
 Root      8 not converged, maximum delta is    0.113153724135188
 New state      9 was old state      8
 Root      9 not converged, maximum delta is    0.032543131847647
 New state     10 was old state      9
 Root     10 not converged, maximum delta is    0.047570470592535
 Root     11 not converged, maximum delta is    0.255593144660081
 Root     12 not converged, maximum delta is    0.273812118092325
 New state     13 was old state     18
 Root     13 not converged, maximum delta is    0.336400880821910
 New state     14 was old state     16
 Root     14 not converged, maximum delta is    0.206585977989735
 New state     15 was old state     13
 Root     15 not converged, maximum delta is    0.112115505099408
 New state     16 was old state     14
 Root     16 not converged, maximum delta is    0.321091831350226
 New state     17 was old state     15
 Root     17 not converged, maximum delta is    0.037702971505805
 New state     18 was old state     17
 Root     18 not converged, maximum delta is    0.175648122671802
 Root     19 not converged, maximum delta is    0.045608912207542
 Root     20 not converged, maximum delta is    0.082266520436940
 Excitation Energies [eV] at current iteration:
 Root      1 :     3.040458727804826   Change is   -0.139951924837839
 Root      2 :     3.620726687424132   Change is   -0.458524125408630
 Root      3 :     4.589234153187787   Change is   -0.173244681198414
 Root      4 :     4.922561478389053   Change is   -0.090583492623108
 Root      5 :     4.989840661401018   Change is   -0.272178118150308
 Root      6 :     5.127420872244092   Change is   -0.221186589902569
 Root      7 :     5.390723306840526   Change is   -0.294907411824616
 Root      8 :     5.779961346782660   Change is   -0.307755898875413
 Root      9 :     5.861165307635488   Change is   -0.040155802094380
 Root     10 :     6.013364316745598   Change is   -0.069027083744741
 Root     11 :     6.057974505543822   Change is   -0.249560588312331
 Root     12 :     6.207855377739945   Change is   -0.472278410023214
 Root     13 :     6.477184365297641   Change is   -0.697249684734478
 Root     14 :     6.516507759739552   Change is   -0.468200350368206
 Root     15 :     6.650752269460749   Change is   -0.197056582413665
 Root     16 :     6.737143799474844   Change is   -0.156027369606484
 Root     17 :     6.864516650548516   Change is   -0.076816259620178
 Root     18 :     7.148674203600383   Change is   -0.002566172831031
 Root     19 :     7.167626103205174   Change is   -0.090848058010918
 Root     20 :     7.212041304003539   Change is   -0.100905985004468
 Iteration     3 Dimension   160 NMult   120 NNew     40
 CISAX will form    40 AO SS matrices at one time.
 NMat=    40 NSing=    40 JSym2X= 0.
 Root      1 not converged, maximum delta is    0.003101847006386
 Root      2 not converged, maximum delta is    0.004824216289868
 Root      3 not converged, maximum delta is    0.003031206484994
 Root      4 not converged, maximum delta is    0.042421291269820
 Root      5 not converged, maximum delta is    0.034954201202459
 Root      6 not converged, maximum delta is    0.012054394447826
 Root      7 not converged, maximum delta is    0.008070818863303
 Root      8 not converged, maximum delta is    0.006632980646545
 Root      9 not converged, maximum delta is    0.007223571168490
 Root     10 not converged, maximum delta is    0.010170873838543
 Root     11 not converged, maximum delta is    0.035733158638135
 Root     12 not converged, maximum delta is    0.034383099193434
 Root     13 not converged, maximum delta is    0.044655451075144
 Root     14 not converged, maximum delta is    0.038529763112999
 Root     15 not converged, maximum delta is    0.005875732733668
 Root     16 not converged, maximum delta is    0.014378956193043
 Root     17 not converged, maximum delta is    0.005058833093890
 No map to state     18
 New state     19 was old state     18
 Root     19 not converged, maximum delta is    0.184692150792525
 New state     20 was old state     19
 Root     20 not converged, maximum delta is    0.325383409500674
 Excitation Energies [eV] at current iteration:
 Root      1 :     3.038013156595769   Change is   -0.002445571209057
 Root      2 :     3.602610762715015   Change is   -0.018115924709117
 Root      3 :     4.584121286972474   Change is   -0.005112866215313
 Root      4 :     4.916027605658352   Change is   -0.006533872730702
 Root      5 :     4.978201432968712   Change is   -0.011639228432306
 Root      6 :     5.117593936449490   Change is   -0.009826935794602
 Root      7 :     5.379382793752133   Change is   -0.011340513088392
 Root      8 :     5.766985963315645   Change is   -0.012975383467015
 Root      9 :     5.858606308604509   Change is   -0.002558999030979
 Root     10 :     6.011372316697870   Change is   -0.001992000047728
 Root     11 :     6.042957457380874   Change is   -0.015017048162947
 Root     12 :     6.176020908789783   Change is   -0.031834468950161
 Root     13 :     6.457869524080862   Change is   -0.019314841216779
 Root     14 :     6.490126209914970   Change is   -0.026381549824582
 Root     15 :     6.643968938646656   Change is   -0.006783330814093
 Root     16 :     6.729048935934308   Change is   -0.008094863540536
 Root     17 :     6.861676715720886   Change is   -0.002839934827631
 Root     18 :     7.033583140588599
 Root     19 :     7.146761700706289   Change is   -0.001912502894094
 Root     20 :     7.155715899040156   Change is   -0.011910204165017
 Iteration     4 Dimension   200 NMult   160 NNew     40
 CISAX will form    40 AO SS matrices at one time.
 NMat=    40 NSing=    40 JSym2X= 0.
 Root      1 has converged.
 Root      2 not converged, maximum delta is    0.001111162275948
 Root      3 has converged.
 Root      4 not converged, maximum delta is    0.002793250118826
 Root      5 not converged, maximum delta is    0.002236653164929
 Root      6 not converged, maximum delta is    0.001155637755148
 Root      7 not converged, maximum delta is    0.001267959230895
 Root      8 has converged.
 Root      9 not converged, maximum delta is    0.002779385500640
 Root     10 not converged, maximum delta is    0.002305756185835
 Root     11 not converged, maximum delta is    0.002391878322503
 Root     12 not converged, maximum delta is    0.002175994896319
 Root     13 not converged, maximum delta is    0.006315172546474
 Root     14 not converged, maximum delta is    0.004613552891368
 Root     15 not converged, maximum delta is    0.003459845064539
 Root     16 not converged, maximum delta is    0.001840292098174
 Root     17 not converged, maximum delta is    0.003011215610018
 Root     18 not converged, maximum delta is    0.149002643030965
 New state     19 was old state     20
 Root     19 not converged, maximum delta is    0.328042416604830
 No map to state     20
 Excitation Energies [eV] at current iteration:
 Root      1 :     3.037952861574892   Change is   -0.000060295020877
 Root      2 :     3.601312840815742   Change is   -0.001297921899273
 Root      3 :     4.583873634339866   Change is   -0.000247652632608
 Root      4 :     4.915650227525670   Change is   -0.000377378132682
 Root      5 :     4.977539189250501   Change is   -0.000662243718211
 Root      6 :     5.116870730219921   Change is   -0.000723206229569
 Root      7 :     5.378622357399570   Change is   -0.000760436352563
 Root      8 :     5.766438145604781   Change is   -0.000547817710864
 Root      9 :     5.858411457008041   Change is   -0.000194851596467
 Root     10 :     6.011221081525276   Change is   -0.000151235172594
 Root     11 :     6.041915774733939   Change is   -0.001041682646935
 Root     12 :     6.174308024549907   Change is   -0.001712884239876
 Root     13 :     6.456320696543293   Change is   -0.001548827537568
 Root     14 :     6.487912043264266   Change is   -0.002214166650705
 Root     15 :     6.643394452391586   Change is   -0.000574486255069
 Root     16 :     6.728540376224452   Change is   -0.000508559709856
 Root     17 :     6.861507439242949   Change is   -0.000169276477937
 Root     18 :     6.941973127672312   Change is   -0.091610012916287
 Root     19 :     7.056361313184068   Change is   -0.099354585856088
 Root     20 :     7.135511119187850
 Iteration     5 Dimension   234 NMult   200 NNew     34
 CISAX will form    34 AO SS matrices at one time.
 NMat=    34 NSing=    34 JSym2X= 0.
 Root      1 has converged.
 Root      2 has converged.
 Root      3 has converged.
 Root      4 has converged.
 Root      5 has converged.
 Root      6 has converged.
 Root      7 has converged.
 Root      8 has converged.
 Root      9 has converged.
 Root     10 has converged.
 Root     11 has converged.
 Root     12 has converged.
 Root     13 has converged.
 Root     14 has converged.
 Root     15 has converged.
 Root     16 has converged.
 Root     17 has converged.
 Root     18 not converged, maximum delta is    0.007546266707745
 Root     19 not converged, maximum delta is    0.011304119733081
 Root     20 not converged, maximum delta is    0.159046456110827
 Excitation Energies [eV] at current iteration:
 Root      1 :     3.037952556766461   Change is   -0.000000304808430
 Root      2 :     3.601261526468856   Change is   -0.000051314346886
 Root      3 :     4.583868737380016   Change is   -0.000004896959850
 Root      4 :     4.915634543151695   Change is   -0.000015684373975
 Root      5 :     4.977517475344556   Change is   -0.000021713905944
 Root      6 :     5.116848500027257   Change is   -0.000022230192663
 Root      7 :     5.378592949251814   Change is   -0.000029408147756
 Root      8 :     5.766424304981787   Change is   -0.000013840622994
 Root      9 :     5.858396667594871   Change is   -0.000014789413171
 Root     10 :     6.011208992934267   Change is   -0.000012088591009
 Root     11 :     6.041874088045093   Change is   -0.000041686688846
 Root     12 :     6.174223413206347   Change is   -0.000084611343560
 Root     13 :     6.456249501581640   Change is   -0.000071194961654
 Root     14 :     6.487788466754694   Change is   -0.000123576509571
 Root     15 :     6.643346627322564   Change is   -0.000047825069023
 Root     16 :     6.728512102252074   Change is   -0.000028273972378
 Root     17 :     6.861492223189624   Change is   -0.000015216053326
 Root     18 :     6.935965927071010   Change is   -0.006007200601302
 Root     19 :     7.051051881198796   Change is   -0.005309431985272
 Root     20 :     7.109351202969602   Change is   -0.026159916218248
 Iteration     6 Dimension   240 NMult   234 NNew      6
 CISAX will form     6 AO SS matrices at one time.
 NMat=     6 NSing=     6 JSym2X= 0.
 Root      1 has converged.
 Root      2 has converged.
 Root      3 has converged.
 Root      4 has converged.
 Root      5 has converged.
 Root      6 has converged.
 Root      7 has converged.
 Root      8 has converged.
 Root      9 has converged.
 Root     10 has converged.
 Root     11 has converged.
 Root     12 has converged.
 Root     13 has converged.
 Root     14 has converged.
 Root     15 has converged.
 Root     16 has converged.
 Root     17 has converged.
 Root     18 has converged.
 Root     19 not converged, maximum delta is    0.001003633922812
 Root     20 not converged, maximum delta is    0.008161879011631
 Excitation Energies [eV] at current iteration:
 Root      1 :     3.037952539658344   Change is   -0.000000017108117
 Root      2 :     3.601261372108366   Change is   -0.000000154360490
 Root      3 :     4.583868527685159   Change is   -0.000000209694858
 Root      4 :     4.915634523601057   Change is   -0.000000019550638
 Root      5 :     4.977517459343570   Change is   -0.000000016000986
 Root      6 :     5.116848476381895   Change is   -0.000000023645362
 Root      7 :     5.378592936067018   Change is   -0.000000013184797
 Root      8 :     5.766424159136353   Change is   -0.000000145845434
 Root      9 :     5.858396664597405   Change is   -0.000000002997466
 Root     10 :     6.011208985435345   Change is   -0.000000007498922
 Root     11 :     6.041874040028589   Change is   -0.000000048016504
 Root     12 :     6.174223190808495   Change is   -0.000000222397852
 Root     13 :     6.456248688479615   Change is   -0.000000813102025
 Root     14 :     6.487787619460041   Change is   -0.000000847294653
 Root     15 :     6.643346551681575   Change is   -0.000000075640988
 Root     16 :     6.728511951522552   Change is   -0.000000150729523
 Root     17 :     6.861491982309020   Change is   -0.000000240880604
 Root     18 :     6.935685229252260   Change is   -0.000280697818750
 Root     19 :     7.050805708999010   Change is   -0.000246172199786
 Root     20 :     7.107374002750419   Change is   -0.001977200219184
 Iteration     7 Dimension   244 NMult   240 NNew      4
 CISAX will form     4 AO SS matrices at one time.
 NMat=     4 NSing=     4 JSym2X= 0.
 Root      1 has converged.
 Root      2 has converged.
 Root      3 has converged.
 Root      4 has converged.
 Root      5 has converged.
 Root      6 has converged.
 Root      7 has converged.
 Root      8 has converged.
 Root      9 has converged.
 Root     10 has converged.
 Root     11 has converged.
 Root     12 has converged.
 Root     13 has converged.
 Root     14 has converged.
 Root     15 has converged.
 Root     16 has converged.
 Root     17 has converged.
 Root     18 has converged.
 Root     19 has converged.
 Root     20 has converged.
 Excitation Energies [eV] at current iteration:
 Root      1 :     3.037952508846713   Change is   -0.000000030811631
 Root      2 :     3.601261332185097   Change is   -0.000000039923268
 Root      3 :     4.583868495607723   Change is   -0.000000032077436
 Root      4 :     4.915634519511798   Change is   -0.000000004089259
 Root      5 :     4.977517454877393   Change is   -0.000000004466177
 Root      6 :     5.116848470542868   Change is   -0.000000005839027
 Root      7 :     5.378592925930090   Change is   -0.000000010136928
 Root      8 :     5.766424095172560   Change is   -0.000000063963792
 Root      9 :     5.858396662193580   Change is   -0.000000002403824
 Root     10 :     6.011208977448502   Change is   -0.000000007986844
 Root     11 :     6.041874037422303   Change is   -0.000000002606285
 Root     12 :     6.174223145860091   Change is   -0.000000044948404
 Root     13 :     6.456248678318146   Change is   -0.000000010161468
 Root     14 :     6.487787578954915   Change is   -0.000000040505126
 Root     15 :     6.643346526864887   Change is   -0.000000024816688
 Root     16 :     6.728511924631217   Change is   -0.000000026891334
 Root     17 :     6.861491970307692   Change is   -0.000000012001328
 Root     18 :     6.935681135467856   Change is   -0.000004093784404
 Root     19 :     7.050791882223775   Change is   -0.000013826775235
 Root     20 :     7.107229099905434   Change is   -0.000144902844984
 Convergence achieved on expansion vectors.
 ***********************************************************************
 Excited states from <AA,BB:AA,BB> singles matrix:
 ***********************************************************************
 
 1PDM for each excited state written to RWF  633
 Ground to excited state transition densities written to RWF  633
 Ground to excited state transition electric dipole moments (Au):
       state          X           Y           Z        Dip. S.      Osc.
         1         0.0645      0.0042     -0.0103      0.0043      0.0003
         2         3.2975      0.2505      0.0034     10.9364      0.9649
         3        -0.2516      0.1830      0.0013      0.0968      0.0109
         4         0.1711     -0.7957      0.0041      0.6624      0.0798
         5         0.5516     -0.8068     -0.0073      0.9552      0.1165
         6         0.6653      0.6126      0.0067      0.8179      0.1025
         7        -0.2234      0.2296      0.0115      0.1027      0.0135
         8        -0.6713     -0.8326      0.0296      1.1447      0.1617
         9        -0.0657     -0.0246     -0.0151      0.0051      0.0007
        10        -0.0428      0.0781      0.0025      0.0079      0.0012
        11         0.5790     -1.0452     -0.0049      1.4276      0.2113
        12        -0.6131      1.2700      0.0052      1.9888      0.3008
        13         0.3568      0.4154      0.0047      0.2999      0.0474
        14         0.1860      0.6126      0.0014      0.4099      0.0651
        15        -0.0490      0.0091      0.0381      0.0039      0.0006
        16         0.3072      0.5318     -0.0197      0.3775      0.0622
        17         0.0368      0.0108      0.1281      0.0179      0.0030
        18         1.7661      0.5754      0.0083      3.4501      0.5862
        19        -0.1277      1.4836     -0.0025      2.2173      0.3830
        20        -0.0316      0.0720      0.1240      0.0216      0.0038
 Ground to excited state transition velocity dipole moments (Au):
       state          X           Y           Z        Dip. S.      Osc.
         1        -0.0070     -0.0003     -0.0015      0.0001      0.0003
         2        -0.4269     -0.0248     -0.0006      0.1829      0.9211
         3         0.0446     -0.0340     -0.0002      0.0031      0.0124
         4        -0.0297      0.1456     -0.0010      0.0221      0.0815
         5        -0.0930      0.1448      0.0013      0.0296      0.1080
         6        -0.1277     -0.1147     -0.0014      0.0295      0.1045
         7         0.0411     -0.0416     -0.0026      0.0034      0.0115
         8         0.1370      0.1771     -0.0064      0.0502      0.1578
         9         0.0137      0.0052      0.0003      0.0002      0.0007
        10         0.0096     -0.0171     -0.0070      0.0004      0.0013
        11        -0.1331      0.2294      0.0006      0.0703      0.2112
        12         0.1409     -0.2795     -0.0010      0.0980      0.2879
        13        -0.0745     -0.0960     -0.0015      0.0148      0.0415
        14        -0.0467     -0.1440     -0.0003      0.0229      0.0641
        15         0.0116     -0.0021     -0.0127      0.0003      0.0008
        16        -0.0750     -0.1351      0.0049      0.0239      0.0644
        17        -0.0092     -0.0027     -0.0260      0.0008      0.0020
        18        -0.4506     -0.1471     -0.0023      0.2247      0.5877
        19         0.0344     -0.3809      0.0011      0.1463      0.3764
        20         0.0081     -0.0185     -0.0417      0.0021      0.0055
 Ground to excited state transition magnetic dipole moments (Au):
       state          X           Y           Z
         1         0.8936      0.4503      0.0093
         2        -0.0123     -0.0174      0.2474
         3         0.0001      0.0026     -0.5693
         4        -0.0023     -0.0167      0.2249
         5         0.0031     -0.0024      1.1663
         6        -0.0011     -0.0024     -1.1512
         7        -0.0005     -0.0146     -1.0205
         8        -0.0014     -0.0563     -1.9743
         9         0.0835      0.0670     -0.0981
        10         0.1758      0.0097     -0.0613
        11         0.0181     -0.0045      0.7329
        12         0.0053      0.0041     -0.0866
        13         0.0195      0.0056      0.0248
        14        -0.0067      0.0012     -0.5101
        15         0.5986      0.3085     -0.0128
        16        -0.0054      0.0274      0.7728
        17         0.0594      0.4310     -0.0408
        18         0.0041     -0.0120     -2.5556
        19        -0.0175      0.0215     -1.6289
        20         0.2653     -0.0742     -0.0560
 Ground to excited state transition velocity quadrupole moments (Au):
       state          XX          YY          ZZ          XY          XZ          YZ
         1         0.0176     -0.0080      0.0004      0.0001     -0.0026      0.0717
         2         0.6213     -0.5646     -0.0274     -0.0250      0.0039     -0.0107
         3         0.4465     -0.0754     -0.0050     -0.0271      0.0001     -0.0002
         4         0.6045      0.0147      0.0047      0.1538      0.0139     -0.0004
         5         0.6653     -0.1177      0.0068      0.9515     -0.0005     -0.0031
         6         0.0883      0.0468     -0.0136     -0.5980      0.0016     -0.0014
         7         1.9710      0.2085      0.0017     -0.7046      0.0095      0.0004
         8        -0.9850      0.0181      0.0109     -1.4863      0.0421      0.0040
         9        -0.0594      0.0099     -0.0017     -0.0763     -0.0029     -0.0033
        10         0.1328      0.0259     -0.0004     -0.0962     -0.0389      0.0445
        11        -2.0458     -0.2860      0.0111      1.4564      0.0078      0.0021
        12         1.9405     -0.1120     -0.0304     -1.9441     -0.0132     -0.0009
        13         1.0567     -0.1952     -0.0096     -0.6506     -0.0024      0.0010
        14        -0.7741      0.5281      0.0023     -0.8658     -0.0071      0.0016
        15        -0.1056      0.0245     -0.0012     -0.0102     -0.0002      0.0902
        16         1.3601      0.1470     -0.0084      1.2286     -0.0345     -0.0000
        17         0.0899      0.0145      0.0010     -0.0166     -0.3162      0.0368
        18         2.6877      1.1558     -0.0012     -1.2999      0.0180      0.0035
        19        -4.7502      1.3329     -0.0209     -1.4493     -0.0230      0.0039
        20        -0.2827      0.0707      0.0005     -0.0646      0.0706      0.0818
 <0|del|b> * <b|rxdel|0> + <0|del|b> * <b|delr+rdel|0>
 Rotatory Strengths (R) in cgs (10**-40 erg-esu-cm/Gauss)
       state          XX          YY          ZZ    R(velocity)    E-M Angle
         1        -0.5183    -21.4193    -18.6673    -13.5349      153.45
         2         1.0439     25.7720      2.7838      9.8666       87.01
         3         0.1236      0.2618     -0.1675      0.0726       90.00
         4        -9.4608      0.0194     -0.6962     -3.3792       94.43
         5         4.6725      0.5410     -1.9387      1.0916       89.76
         6         5.5341      2.0725      0.0926      2.5664       89.41
         7         9.9693      1.4892      0.3197      3.9261       86.84
         8         7.7664      5.7896     -5.4231      2.7109       89.68
         9         0.5061      1.7879      2.4985      1.5975       46.63
        10         0.4278      3.0005      2.8200      2.0828       59.82
        11        -2.2723     -5.0212     -2.2097     -3.1678       90.88
        12        -4.1837     -2.0867      5.3315     -0.3130       90.63
        13         0.2668     -3.7866     -2.5053     -2.0084      121.29
        14        -1.2254      0.2075      1.8407      0.2743       89.79
        15        -0.5304     11.6342      7.5960      6.2332       56.51
        16         1.9860     -2.5885      1.9511      0.4495       89.77
        17        -0.7505     -0.3589     -0.7300     -0.6132       93.10
        18        18.3217     -0.8181     -1.5932      5.3035       89.73
        19       -27.8817     -0.9169     -0.2280     -9.6755       90.98
        20        10.4317      3.3010      2.0907      5.2745       63.32
 1/2[<0|r|b>*<b|rxdel|0> + (<0|rxdel|b>*<b|r|0>)*]
 Rotatory Strengths (R) in cgs (10**-40 erg-esu-cm/Gauss)
       state          XX          YY          ZZ     R(length)
         1       -40.7713     -1.3322      0.0682    -14.0118
         2        28.7363      3.0860     -0.5920     10.4101
         3         0.0123     -0.3348      0.5121      0.0632
         4         0.2817     -9.4096     -0.6453     -3.2577
         5        -1.1956     -1.3783      6.0368      1.1543
         6         0.5014      1.0465      5.4764      2.3414
         7        -0.0768      2.3763      8.3318      3.5437
         8        -0.6629    -33.1433     41.3470      2.5136
         9         3.8784      1.1636     -1.0508      1.3304
        10         5.3212     -0.5376      0.1081      1.6306
        11        -7.4217     -3.3479      2.5629     -2.7356
        12         2.2790     -3.6401      0.3181     -0.3476
        13        -4.9108     -1.6367     -0.0834     -2.2103
        14         0.8809     -0.5194      0.5212      0.2942
        15        20.7473     -1.9759      0.3461      6.3725
        16         1.1822    -10.3026     10.7567      0.5454
        17        -1.5445     -3.2958      3.6989     -0.3805
        18        -5.1501      4.8625     14.9776      4.8967
        19        -1.5817    -22.5629     -2.8763     -9.0070
        20         5.9388      3.7781      4.9115      4.8761
  1/2[<0|del|b>*<b|r|0> + (<0|r|b>*<b|del|0>)*] (Au)
       state          X           Y           Z        Dip. S.   Osc.(frdel)
         1        -0.0005     -0.0000      0.0000      0.0004      0.0003
         2        -1.4077     -0.0062     -0.0000      1.4139      0.9426
         3        -0.0112     -0.0062     -0.0000      0.0174      0.0116
         4        -0.0051     -0.1159     -0.0000      0.1209      0.0806
         5        -0.0513     -0.1169     -0.0000      0.1682      0.1121
         6        -0.0850     -0.0703     -0.0000      0.1552      0.1035
         7        -0.0092     -0.0095     -0.0000      0.0187      0.0125
         8        -0.0919     -0.1475     -0.0002      0.2396      0.1597
         9        -0.0009     -0.0001     -0.0000      0.0010      0.0007
        10        -0.0004     -0.0013     -0.0000      0.0018      0.0012
        11        -0.0771     -0.2398     -0.0000      0.3168      0.2112
        12        -0.0864     -0.3550     -0.0000      0.4414      0.2942
        13        -0.0266     -0.0399     -0.0000      0.0665      0.0443
        14        -0.0087     -0.0882     -0.0000      0.0969      0.0646
        15        -0.0006     -0.0000     -0.0005      0.0011      0.0007
        16        -0.0230     -0.0718     -0.0001      0.0950      0.0633
        17        -0.0003     -0.0000     -0.0033      0.0037      0.0025
        18        -0.7959     -0.0846     -0.0000      0.8805      0.5870
        19        -0.0044     -0.5651     -0.0000      0.5695      0.3797
        20        -0.0003     -0.0013     -0.0052      0.0068      0.0045

 Excitation energies and oscillator strengths:
 
 Excited State   1:      Singlet-A      3.0380 eV  408.12 nm  f=0.0003  <S**2>=0.000
      68 -> 71         0.68725
      68 -> 75         0.11471
 This state for optimization and/or second-order correction.
 Total Energy, E(TD-HF/TD-DFT) =  -881.866360069    
 Copying the excited state density for this state as the 1-particle RhoCI density.
 
 Excited State   2:      Singlet-A      3.6013 eV  344.28 nm  f=0.9649  <S**2>=0.000
      70 -> 71         0.69439
 
 Excited State   3:      Singlet-A      4.5839 eV  270.48 nm  f=0.0109  <S**2>=0.000
      69 -> 71         0.61371
      70 -> 72         0.27319
 
 Excited State   4:      Singlet-A      4.9156 eV  252.22 nm  f=0.0798  <S**2>=0.000
      66 -> 71        -0.31660
      66 -> 75         0.10110
      67 -> 71         0.21117
      67 -> 73        -0.20955
      69 -> 71        -0.11078
      69 -> 72         0.11934
      70 -> 72         0.41559
      70 -> 73        -0.25882
 
 Excited State   5:      Singlet-A      4.9775 eV  249.09 nm  f=0.1165  <S**2>=0.000
      66 -> 71         0.25391
      67 -> 71         0.19763
      67 -> 72        -0.12155
      67 -> 73         0.12368
      69 -> 71        -0.15550
      69 -> 72         0.15190
      70 -> 72         0.32614
      70 -> 73         0.41447
 
 Excited State   6:      Singlet-A      5.1168 eV  242.31 nm  f=0.1025  <S**2>=0.000
      67 -> 71         0.32916
      67 -> 74         0.11647
      69 -> 71         0.26268
      69 -> 72         0.36485
      69 -> 73         0.14325
      70 -> 72        -0.27479
      70 -> 74        -0.21301
 
 Excited State   7:      Singlet-A      5.3786 eV  230.51 nm  f=0.0135  <S**2>=0.000
      65 -> 71        -0.13187
      66 -> 71         0.10664
      67 -> 71         0.51234
      67 -> 74        -0.10465
      69 -> 72        -0.31151
      69 -> 73        -0.11361
      70 -> 74         0.23222
 
[...]
     4  C    0.010275  -0.001025   0.000743   0.000130   0.000277  -0.000002
     5  C   -0.000009   0.000057  -0.000103   0.000019   0.000344  -0.000000
     6  C   -0.000385   0.008182  -0.000127   0.000003  -0.000011   0.000000
     7  C   -0.039765   0.007710   0.000595   0.000039   0.000090   0.000001
     8  C    0.007690  -0.040490  -0.000002   0.000000  -0.000000   0.000000
     9  C    0.420004  -0.041974   0.000021  -0.000008   0.000000  -0.000000
    10  H   -0.007944  -0.000144   0.000500  -0.000814   0.000506  -0.000036
    11  C   -0.043254   0.422813   0.000002  -0.000000   0.000000  -0.000000
    12  H   -0.000229  -0.006900  -0.000000   0.000000  -0.000000   0.000000
    13  H    0.545813  -0.007506  -0.000004   0.000002  -0.000000   0.000000
    14  H   -0.007506   0.541583   0.000000  -0.000000   0.000000  -0.000000
    15  C   -0.000004   0.000000   5.093587   0.455866   0.240621  -0.022947
    16  C    0.000002  -0.000000   0.455866   4.955662  -0.004711   0.408561
    17  C   -0.000000   0.000000   0.240621  -0.004711   5.225390  -0.059147
    18  C    0.000000  -0.000000  -0.022947   0.408561  -0.059147   5.072072
    19  H   -0.000013   0.000000  -0.050084   0.407852   0.015139  -0.033650
    20  C    0.000000  -0.000000   0.029722  -0.054262   0.324845  -0.031410
    21  H   -0.000000   0.000000  -0.069072   0.008442   0.431846  -0.001904
    22  C   -0.000000   0.000000  -0.065818  -0.013587   0.000001   0.436277
    23  H    0.000000  -0.000000   0.008621  -0.033353  -0.002269   0.419282
    24  H   -0.000000   0.000000   0.007427  -0.001923  -0.031528   0.009575
    25  N    0.000004  -0.000162   0.000001  -0.000000  -0.000000   0.000000
    26  C   -0.000000  -0.000032  -0.000000   0.000000  -0.000000  -0.000000
    27  H    0.000000   0.000002   0.000000   0.000000   0.000000  -0.000000
    28  H    0.000000   0.000002   0.000000  -0.000000   0.000000  -0.000000
    29  H    0.000000  -0.000001  -0.000000  -0.000000   0.000000   0.000000
    30  C   -0.000000   0.000000  -0.000002  -0.000000  -0.000114  -0.000000
    31  H    0.000000   0.000000  -0.000001  -0.000000  -0.000004  -0.000000
    32  H   -0.000000   0.000000  -0.000351   0.000017  -0.000139  -0.000001
    33  H    0.000000   0.000000  -0.000001  -0.000000  -0.000006  -0.000000
    34  F   -0.000000   0.000000  -0.000983   0.006990   0.007207  -0.061466
              19         20         21         22         23         24
     1  N   -0.000610  -0.001919   0.031442   0.000161   0.000007  -0.000069
     2  N    0.007723   0.009567  -0.019369  -0.000858  -0.000143  -0.000068
     3  C    0.000201  -0.000246   0.003059   0.000016  -0.000001  -0.000001
     4  C   -0.000240  -0.000007   0.000914   0.000000   0.000000  -0.000000
     5  C    0.000022  -0.000002  -0.000382   0.000000   0.000000   0.000000
     6  C   -0.000017   0.000000  -0.000073  -0.000000   0.000000   0.000000
     7  C   -0.000101  -0.000001   0.000083   0.000000   0.000000  -0.000000
     8  C   -0.000001   0.000000  -0.000001  -0.000000   0.000000   0.000000
     9  C    0.000035  -0.000000   0.000000   0.000000  -0.000000  -0.000000
    10  H    0.002471  -0.000021   0.000084   0.000006  -0.000003   0.000000
    11  C    0.000002  -0.000000   0.000000   0.000000  -0.000000  -0.000000
    12  H   -0.000000   0.000000  -0.000000  -0.000000   0.000000   0.000000
    13  H   -0.000013   0.000000  -0.000000  -0.000000   0.000000  -0.000000
    14  H    0.000000  -0.000000   0.000000   0.000000  -0.000000   0.000000
    15  C   -0.050084   0.029722  -0.069072  -0.065818   0.008621   0.007427
    16  C    0.407852  -0.054262   0.008442  -0.013587  -0.033353  -0.001923
    17  C    0.015139   0.324845   0.431846   0.000001  -0.002269  -0.031528
    18  C   -0.033650  -0.031410  -0.001904   0.436277   0.419282   0.009575
    19  H    0.523828  -0.002706   0.000176   0.006874  -0.007598   0.000048
    20  C   -0.002706   5.122750  -0.041370   0.421731   0.009654   0.417635
    21  H    0.000176  -0.041370   0.514178   0.007138   0.000036  -0.006895
    22  C    0.006874   0.421731   0.007138   4.756786  -0.047914  -0.046674
    23  H   -0.007598   0.009654   0.000036  -0.047914   0.518319  -0.000209
    24  H    0.000048   0.417635  -0.006895  -0.046674  -0.000209   0.516526
    25  N   -0.000000   0.000000  -0.000004  -0.000000  -0.000000   0.000000
    26  C    0.000000  -0.000000  -0.000000   0.000000   0.000000   0.000000
    27  H    0.000000   0.000000   0.000000  -0.000000  -0.000000  -0.000000
    28  H    0.000000  -0.000000   0.000000  -0.000000  -0.000000  -0.000000
    29  H   -0.000000   0.000000  -0.000001  -0.000000   0.000000   0.000000
    30  C    0.000001   0.000002   0.000351   0.000000  -0.000000  -0.000000
    31  H    0.000000  -0.000000  -0.000009   0.000000   0.000000   0.000000
    32  H    0.000003  -0.000031   0.002779   0.000002  -0.000000  -0.000004
    33  H    0.000000  -0.000000  -0.000008   0.000000  -0.000000   0.000000
    34  F   -0.000058  -0.060958  -0.000060   0.323235   0.000476   0.000654
              25         26         27         28         29         30
     1  N    0.002349  -0.000058   0.000004   0.000003  -0.000002   0.002571
     2  N   -0.000002   0.000004  -0.000000  -0.000000   0.000000  -0.000246
     3  C   -0.049636   0.008626  -0.000317  -0.000315   0.001418  -0.087969
     4  C   -0.060209   0.007022   0.000581   0.000583  -0.001059   0.028362
     5  C    0.433495  -0.061615   0.003635   0.003672  -0.015470   0.318705
     6  C    0.401429  -0.066408  -0.005815  -0.005893   0.007150  -0.004514
     7  C    0.006990  -0.000221   0.000004   0.000003  -0.000004   0.000681
     8  C   -0.054616  -0.005126   0.001421   0.001436   0.000227  -0.000405
     9  C   -0.000008   0.000039  -0.000028  -0.000028   0.000001  -0.000006
    10  H   -0.000104   0.000014   0.000000   0.000000  -0.000001   0.000055
    11  C    0.004473  -0.000120   0.000055   0.000058   0.000015   0.000013
    12  H   -0.005485   0.003566  -0.000405  -0.000410   0.000001  -0.000017
    13  H    0.000004  -0.000000   0.000000   0.000000   0.000000  -0.000000
    14  H   -0.000162  -0.000032   0.000002   0.000002  -0.000001   0.000000
    15  C    0.000001  -0.000000   0.000000   0.000000  -0.000000  -0.000002
    16  C   -0.000000   0.000000   0.000000  -0.000000  -0.000000  -0.000000
    17  C   -0.000000  -0.000000   0.000000   0.000000   0.000000  -0.000114
    18  C    0.000000  -0.000000  -0.000000  -0.000000   0.000000  -0.000000
    19  H   -0.000000   0.000000   0.000000   0.000000  -0.000000   0.000001
    20  C    0.000000  -0.000000   0.000000  -0.000000   0.000000   0.000002
    21  H   -0.000004  -0.000000   0.000000   0.000000  -0.000001   0.000351
    22  C   -0.000000   0.000000  -0.000000  -0.000000  -0.000000   0.000000
    23  H   -0.000000   0.000000  -0.000000  -0.000000   0.000000  -0.000000
    24  H    0.000000   0.000000  -0.000000  -0.000000   0.000000  -0.000000
    25  N    6.640679   0.289423  -0.034605  -0.034518  -0.016203  -0.051317
    26  C    0.289423   4.779838   0.409841   0.409822   0.406925  -0.005910
    27  H   -0.034605   0.409841   0.533479  -0.034964  -0.021888   0.000010
    28  H   -0.034518   0.409822  -0.034964   0.533472  -0.021873   0.000002
    29  H   -0.016203   0.406925  -0.021888  -0.021873   0.510898   0.003259
    30  C   -0.051317  -0.005910   0.000010   0.000002   0.003259   4.846820
    31  H   -0.002503  -0.000685   0.000093  -0.000050  -0.000964   0.409733
    32  H    0.003913   0.000479  -0.000012  -0.000014   0.000212   0.409722
    33  H   -0.002512  -0.000668  -0.000051   0.000093  -0.000977   0.409744
    34  F    0.000000  -0.000000   0.000000   0.000000  -0.000000  -0.000000
              31         32         33         34
     1  N   -0.000034   0.012510  -0.000043   0.000000
     2  N    0.000016  -0.000803   0.000017  -0.000000
     3  C    0.001222  -0.015863   0.001258  -0.000000
     4  C    0.000267   0.003621   0.000258   0.000000
     5  C   -0.040587  -0.025600  -0.040563  -0.000000
     6  C   -0.000556  -0.000963  -0.000550  -0.000000
     7  C    0.000024   0.000108   0.000024  -0.000000
     8  C   -0.000012  -0.000007  -0.000011   0.000000
     9  C   -0.000001   0.000000  -0.000001  -0.000000
    10  H    0.000001   0.000019   0.000001   0.000000
    11  C   -0.000001   0.000000  -0.000001   0.000000
    12  H   -0.000002  -0.000000  -0.000002  -0.000000
    13  H    0.000000  -0.000000   0.000000  -0.000000
    14  H    0.000000   0.000000   0.000000   0.000000
    15  C   -0.000001  -0.000351  -0.000001  -0.000983
    16  C   -0.000000   0.000017  -0.000000   0.006990
    17  C   -0.000004  -0.000139  -0.000006   0.007207
    18  C   -0.000000  -0.000001  -0.000000  -0.061466
    19  H    0.000000   0.000003   0.000000  -0.000058
    20  C   -0.000000  -0.000031  -0.000000  -0.060958
    21  H   -0.000009   0.002779  -0.000008  -0.000060
    22  C    0.000000   0.000002   0.000000   0.323235
    23  H    0.000000  -0.000000  -0.000000   0.000476
    24  H    0.000000  -0.000004   0.000000   0.000654
    25  N   -0.002503   0.003913  -0.002512   0.000000
    26  C   -0.000685   0.000479  -0.000668  -0.000000
    27  H    0.000093  -0.000012  -0.000051   0.000000
    28  H   -0.000050  -0.000014   0.000093   0.000000
    29  H   -0.000964   0.000212  -0.000977  -0.000000
    30  C    0.409733   0.409722   0.409744  -0.000000
    31  H    0.532149  -0.018780  -0.029847  -0.000000
    32  H   -0.018780   0.502090  -0.018891   0.000000
    33  H   -0.029847  -0.018891   0.532167  -0.000000
    34  F   -0.000000   0.000000  -0.000000   9.022522
 Mulliken charges:
               1
     1  N   -0.175785
     2  N   -0.239105
     3  C   -0.088481
     4  C   -0.059482
     5  C    0.224464
     6  C    0.198052
     7  C   -0.077128
     8  C   -0.083122
     9  C   -0.132763
    10  H    0.110239
    11  C   -0.130804
    12  H    0.128964
    13  H    0.115403
    14  H    0.117990
    15  C    0.004536
    16  C   -0.075496
    17  C   -0.047841
    18  C   -0.139793
    19  H    0.130701
    20  C   -0.142974
    21  H    0.138618
    22  C    0.222623
    23  H    0.135093
    24  H    0.135506
    25  N   -0.470872
    26  C   -0.174756
    27  H    0.148963
    28  H    0.148919
    29  H    0.148334
    30  C   -0.279532
    31  H    0.150530
    32  H    0.145985
    33  H    0.150571
    34  F   -0.237559
 Sum of Mulliken charges =  -0.00000
 Mulliken charges with hydrogens summed into heavy atoms:
               1
     1  N   -0.175785
     2  N   -0.239105
     3  C   -0.088481
     4  C   -0.059482
     5  C    0.224464
     6  C    0.198052
     7  C    0.033112
     8  C    0.045842
     9  C   -0.017360
    11  C   -0.012813
    15  C    0.004536
    16  C    0.055205
    17  C    0.090777
    18  C   -0.004699
    20  C   -0.007468
    22  C    0.222623
    25  N   -0.470872
    26  C    0.271461
    30  C    0.167554
    34  F   -0.237559
 Electronic spatial extent (au):  <R**2>=           7692.0748
 Charge=             -0.0000 electrons
 Dipole moment (field-independent basis, Debye):
    X=              6.0994    Y=              3.8898    Z=              0.0099  Tot=              7.2342
 Quadrupole moment (field-independent basis, Debye-Ang):
   XX=           -103.0331   YY=            -95.9854   ZZ=           -120.8925
   XY=             13.1269   XZ=              0.0494   YZ=             -0.1989
 Traceless Quadrupole moment (field-independent basis, Debye-Ang):
   XX=              3.6039   YY=             10.6516   ZZ=            -14.2555
   XY=             13.1269   XZ=              0.0494   YZ=             -0.1989
 Octapole moment (field-independent basis, Debye-Ang**2):
  XXX=            198.1881  YYY=             23.6737  ZZZ=              0.1715  XYY=              2.9714
  XXY=             38.3194  XXZ=              0.3075  XZZ=            -13.0389  YZZ=             11.9496
  YYZ=              0.0561  XYZ=              1.3849
 Hexadecapole moment (field-independent basis, Debye-Ang**3):
 XXXX=          -8228.2684 YYYY=          -1709.3328 ZZZZ=           -142.6537 XXXY=            193.5763
 XXXZ=             -0.3132 YYYX=             74.5739 YYYZ=             -0.7824 ZZZX=              0.7083
 ZZZY=              0.1888 XXYY=          -1396.0664 XXZZ=          -1436.1783 YYZZ=           -362.4827
 XXYZ=             -3.7854 YYXZ=             -0.3063 ZZXY=             34.3926
 N-N= 1.401746584461D+03 E-N=-4.861362552677D+03  KE= 8.792596984074D+02
 Leave Link  601 at Thu Jan 30 16:33:55 2025, MaxMem= 25501368320 cpu:              12.0 elap:               0.6
 (Enter /share/Apps/gaussian/g16/l9999.exe)
 Electronic transition elements 
                 1             2             3             4             5 
      1  -0.881866D+03 -0.881846D+03 -0.881810D+03 -0.881797D+03 -0.881795D+03
      2   0.645160D-01  0.329751D+01 -0.251566D+00  0.171069D+00  0.551578D+00
      3   0.418376D-02  0.250546D+00  0.182982D+00 -0.795688D+00 -0.806809D+00
      4  -0.103107D-01  0.338318D-02  0.127210D-02  0.405706D-02 -0.731962D-02
      5  -0.699132D-02 -0.426904D+00  0.446055D-01 -0.296640D-01 -0.930323D-01
      6  -0.329783D-03 -0.247902D-01 -0.340000D-01  0.145616D+00  0.144849D+00
      7  -0.151426D-02 -0.618786D-03 -0.240253D-03 -0.994232D-03  0.127086D-02
      8   0.893648D+00 -0.123232D-01  0.693791D-04 -0.232878D-02  0.306524D-02
      9   0.450271D+00 -0.174177D-01  0.258753D-02 -0.167228D-01 -0.241576D-02
     10   0.934733D-02  0.247426D+00 -0.569303D+00  0.224932D+00  0.116626D+01
     11   0.175598D-01  0.621332D+00  0.446485D+00  0.604474D+00  0.665345D+00
     12  -0.799445D-02 -0.564571D+00 -0.754189D-01  0.147127D-01 -0.117734D+00
     13   0.434415D-03 -0.274421D-01 -0.504896D-02  0.465754D-02  0.675440D-02
     14   0.102186D-03 -0.250045D-01 -0.271034D-01  0.153803D+00  0.951523D+00
     15  -0.256728D-02  0.389601D-02  0.104745D-03  0.138851D-01 -0.522943D-03
     16   0.717025D-01 -0.106677D-01 -0.193690D-03 -0.389881D-03 -0.314021D-02
                 6             7             8             9            10 
      1  -0.881790D+03 -0.881780D+03 -0.881766D+03 -0.881763D+03 -0.881757D+03
      2   0.665332D+00 -0.223374D+00 -0.671265D+00 -0.656544D-01 -0.427954D-01
      3   0.612560D+00  0.229552D+00 -0.832588D+00 -0.245615D-01  0.780886D-01
      4   0.672713D-02  0.115455D-01  0.296154D-01 -0.151460D-01  0.249390D-02
      5  -0.127715D+00  0.410703D-01  0.136954D+00  0.136615D-01  0.961651D-02
      6  -0.114687D+00 -0.415545D-01  0.177101D+00  0.522494D-02 -0.171002D-01
      7  -0.141948D-02 -0.264954D-02 -0.638098D-02  0.328067D-03 -0.697720D-02
      8  -0.106567D-02 -0.486231D-03 -0.139648D-02  0.835345D-01  0.175829D+00
      9  -0.241588D-02 -0.146385D-01 -0.562918D-01  0.669947D-01  0.973519D-02
     10  -0.115119D+01 -0.102048D+01 -0.197426D+01 -0.981062D-01 -0.612712D-01
     11   0.882916D-01  0.197095D+01 -0.984986D+00 -0.593696D-01  0.132772D+00
     12   0.468393D-01  0.208468D+00  0.181383D-01  0.993873D-02  0.259458D-01
     13  -0.135611D-01  0.170381D-02  0.109460D-01 -0.174577D-02 -0.369588D-03
     14  -0.597998D+00 -0.704625D+00 -0.148635D+01 -0.762984D-01 -0.962331D-01
     15   0.159661D-02  0.948205D-02  0.421121D-01 -0.293942D-02 -0.388981D-01
     16  -0.141576D-02  0.378958D-03  0.399937D-02 -0.332447D-02  0.444779D-01
                11            12            13            14            15 
      1  -0.881756D+03 -0.881751D+03 -0.881741D+03 -0.881740D+03 -0.881734D+03
      2   0.578956D+00 -0.613052D+00  0.356839D+00  0.186015D+00 -0.490123D-01
      3  -0.104517D+01  0.127000D+01  0.415387D+00  0.612582D+00  0.905801D-02
      4  -0.494527D-02  0.519252D-02  0.474876D-02  0.144479D-02  0.381036D-01
      5  -0.133097D+00  0.140925D+00 -0.744703D-01 -0.466506D-01  0.116135D-01
      6   0.229403D+00 -0.279504D+00 -0.959942D-01 -0.144001D+00 -0.213833D-02
      7   0.638608D-03 -0.104776D-02 -0.150662D-02 -0.269867D-03 -0.127369D-01
      8   0.181275D-01  0.525690D-02  0.194606D-01 -0.669684D-02  0.598599D+00
      9  -0.452966D-02  0.405309D-02  0.557191D-02  0.119905D-02  0.308475D+00
     10   0.732853D+00 -0.866339D-01  0.248255D-01 -0.510142D+00 -0.128452D-01
     11  -0.204582D+01  0.194053D+01  0.105671D+01 -0.774109D+00 -0.105578D+00
     12  -0.286021D+00 -0.111995D+00 -0.195202D+00  0.528106D+00  0.244514D-01
     13   0.111365D-01 -0.304172D-01 -0.963110D-02  0.225607D-02 -0.124160D-02
     14   0.145638D+01 -0.194411D+01 -0.650584D+00 -0.865769D+00 -0.102242D-01
     15   0.778484D-02 -0.131648D-01 -0.238447D-02 -0.711740D-02 -0.216132D-03
     16   0.209132D-02 -0.948675D-03  0.994535D-03  0.164023D-02  0.902266D-01
                16            17            18            19            20 
      1  -0.881731D+03 -0.881726D+03 -0.881723D+03 -0.881719D+03 -0.881717D+03
      2   0.307196D+00  0.367612D-01  0.176607D+01 -0.127654D+00 -0.316492D-01
      3   0.531762D+00  0.108131D-01  0.575362D+00  0.148357D+01  0.720273D-01
      4  -0.196825D-01  0.128113D+00  0.828776D-02 -0.249695D-02  0.123974D+00
      5  -0.749831D-01 -0.920858D-02 -0.450638D+00  0.344420D-01  0.805695D-02
      6  -0.135076D+00 -0.271883D-02 -0.147062D+00 -0.380923D+00 -0.185082D-01
      7   0.487076D-02 -0.260370D-01 -0.228340D-02  0.112950D-02 -0.416530D-01
      8  -0.544212D-02  0.594124D-01  0.412372D-02 -0.175218D-01  0.265349D+00
      9   0.273974D-01  0.431015D+00 -0.119508D-01  0.215064D-01 -0.741737D-01
     10   0.772819D+00 -0.408282D-01 -0.255555D+01 -0.162893D+01 -0.560225D-01
     11   0.136012D+01  0.899161D-01  0.268771D+01 -0.475015D+01 -0.282727D+00
     12   0.147046D+00  0.145149D-01  0.115577D+01  0.133289D+01  0.706935D-01
     13  -0.838357D-02  0.999930D-03 -0.115052D-02 -0.208968D-01  0.543558D-03
     14   0.122858D+01 -0.166380D-01 -0.129989D+01 -0.144932D+01 -0.646350D-01
     15  -0.344899D-01 -0.316180D+00  0.179942D-01 -0.230049D-01  0.706242D-01
     16  -0.215531D-04  0.367815D-01  0.354737D-02  0.390326D-02  0.818192D-01
 Unable to Open any file for archive entry.
 1\1\GINC-SOL-E614\SP\RCAM-B3LYP TD-FC\6-311G(d,p)\C16H14F1N3\CRF524\30
 -Jan-2025\0\\#p td(nstates=20, singlets) cam-b3lyp/6-311g(d,p) scrf=(s
 olvent=acetonitrile)\\f-pai-me_anti-trans_tddft\\0,1\N,0,-0.283678,0.6
 52796,0.004052\N,0,-0.955169,-0.406621,0.003221\C,0,1.081002,0.506759,
 0.003331\C,0,1.923814,-0.666882,-0.002873\C,0,1.913727,1.618855,0.0085
 88\C,0,3.246202,-0.1836,-0.001181\C,0,1.707441,-2.046948,-0.01013\C,0,
 4.350218,-1.027765,-0.006244\C,0,2.803039,-2.89387,-0.015294\H,0,0.699
 342,-2.43406,-0.011572\C,0,4.10969,-2.391554,-0.01331\H,0,5.360618,-0.
 638768,-0.004777\H,0,2.648152,-3.966196,-0.020947\H,0,4.946705,-3.0791
 54,-0.017409\C,0,-2.360656,-0.214694,0.000483\C,0,-3.133797,-1.372578,
 0.035728\C,0,-2.992503,1.030554,-0.03801\C,0,-4.518525,-1.302653,0.036
 102\H,0,-2.631787,-2.331394,0.063801\C,0,-4.373143,1.112692,-0.03884\H
 ,0,-2.389497,1.926898,-0.067844\C,0,-5.111146,-0.057248,-0.001184\H,0,
 -5.133524,-2.192561,0.064136\H,0,-4.884026,2.066534,-0.069018\N,0,3.20
 8772,1.204092,0.005849\C,0,4.393382,2.041298,0.010038\H,0,4.994944,1.8
 42546,0.898302\H,0,4.996409,1.849056,-0.878642\H,0,4.101953,3.087347,0
 .013549\C,0,1.523092,3.052099,0.016543\H,0,1.907078,3.573347,-0.863462
 \H,0,0.438472,3.125337,0.0176\H,0,1.907908,3.563563,0.901915\F,0,-6.45
 8141,0.025427,-0.00222\\Version=ES64L-G16RevC.01\State=1-A\HF=-881.978
 0028\RMSD=7.388e-09\PG=C01 [X(C16H14F1N3)]\\@
 The archive entry for this job was punched.


 THE MORE POWERFUL THE METHOD, THE MORE CATASTROPHIC THE ERRORS.
     -- M.D. KAMEN
 Job cpu time:       0 days  1 hours 57 minutes 45.3 seconds.
 Elapsed time:       0 days  0 hours  3 minutes 20.4 seconds.
 File lengths (MBytes):  RWF=   2276 Int=      0 D2E=      0 Chk=    140 Scr=      8
 Normal termination of Gaussian 16 at Thu Jan 30 16:33:56 2025.
