 Entering Gaussian System, Link 0=g16
 Initial command:
 /share/Apps/gaussian/g16/l1.exe "/share/ceph/scratch/crf524/12270101/Gau-630465.inp" -scrdir="/share/ceph/scratch/crf524/12270101/"
 Entering Link 1 = /share/Apps/gaussian/g16/l1.exe PID=    630468.
  
 Copyright (c) 1988-2019, Gaussian, Inc.  All Rights Reserved.
  
 This is part of the Gaussian(R) 16 program.  It is based on
 the Gaussian(R) 09 system (copyright 2009, Gaussian, Inc.),
 the Gaussian(R) 03 system (copyright 2003, Gaussian, Inc.),
 the Gaussian(R) 98 system (copyright 1998, Gaussian, Inc.),
 the Gaussian(R) 94 system (copyright 1995, Gaussian, Inc.),
 the Gaussian 92(TM) system (copyright 1992, Gaussian, Inc.),
 the Gaussian 90(TM) system (copyright 1990, Gaussian, Inc.),
 the Gaussian 88(TM) system (copyright 1988, Gaussian, Inc.),
 the Gaussian 86(TM) system (copyright 1986, Carnegie Mellon
 University), and the Gaussian 82(TM) system (copyright 1983,
 Carnegie Mellon University). Gaussian is a federally registered
 trademark of Gaussian, Inc.
  
 This software contains proprietary and confidential information,
 including trade secrets, belonging to Gaussian, Inc.
  
 This software is provided under written license and may be
 used, copied, transmitted, or stored only in accord with that
 written license.
  
 The following legend is applicable only to US Government
 contracts under FAR:
  
                    RESTRICTED RIGHTS LEGEND
  
 Use, reproduction and disclosure by the US Government is
 subject to restrictions as set forth in subparagraphs (a)
 and (c) of the Commercial Computer Software - Restricted
 Rights clause in FAR 52.227-19.
  
 Gaussian, Inc.
 340 Quinnipiac St., Bldg. 40, Wallingford CT 06492
  
  
 ---------------------------------------------------------------
 Warning -- This program may not be used in any manner that
 competes with the business of Gaussian, Inc. or will provide
 assistance to any competitor of Gaussian, Inc.  The licensee
 of this program is prohibited from giving any competitor of
 Gaussian, Inc. access to this program.  By using this program,
 the user acknowledges that Gaussian, Inc. is engaged in the
 business of creating and licensing software in the field of
 computational chemistry and represents and warrants to the
 licensee that it is not a competitor of Gaussian, Inc. and that
 it will not use this program in any manner prohibited above.
 ---------------------------------------------------------------
  

 Cite this work as:
 Gaussian 16, Revision C.01,
 M. J. Frisch, G. W. Trucks, H. B. Schlegel, G. E. Scuseria, 
 M. A. Robb, J. R. Cheeseman, G. Scalmani, V. Barone, 
 G. A. Petersson, H. Nakatsuji, X. Li, M. Caricato, A. V. Marenich, 
 J. Bloino, B. G. Janesko, R. Gomperts, B. Mennucci, H. P. Hratchian, 
 J. V. Ortiz, A. F. Izmaylov, J. L. Sonnenberg, D. Williams-Young, 
 F. Ding, F. Lipparini, F. Egidi, J. Goings, B. Peng, A. Petrone, 
 T. Henderson, D. Ranasinghe, V. G. Zakrzewski, J. Gao, N. Rega, 
 G. Zheng, W. Liang, M. Hada, M. Ehara, K. Toyota, R. Fukuda, 
 J. Hasegawa, M. Ishida, T. Nakajima, Y. Honda, O. Kitao, H. Nakai, 
 T. Vreven, K. Throssell, J. A. Montgomery, Jr., J. E. Peralta, 
 F. Ogliaro, M. J. Bearpark, J. J. Heyd, E. N. Brothers, K. N. Kudin, 
 V. N. Staroverov, T. A. Keith, R. Kobayashi, J. Normand, 
 K. Raghavachari, A. P. Rendell, J. C. Burant, S. S. Iyengar, 
 J. Tomasi, M. Cossi, J. M. Millam, M. Klene, C. Adamo, R. Cammi, 
 J. W. Ochterski, R. L. Martin, K. Morokuma, O. Farkas, 
 J. B. Foresman, and D. J. Fox, Gaussian, Inc., Wallingford CT, 2019.
 
 ******************************************
 Gaussian 16:  ES64L-G16RevC.01  3-Jul-2019
                 6-Feb-2025 
 ******************************************
 %nprocshared=36
 Will use up to   36 processors via shared memory.
 %mem=190GB
 %chk=anti-trans.chk
 ----------------------------------------------------------------------
 #p td(nstates=20, singlets) cam-b3lyp/6-311g(d,p) scrf=(solvent=aceton
 itrile)
 ----------------------------------------------------------------------
 1/38=1,172=1/1;
 2/12=2,17=6,18=5,40=1/2;
 3/5=4,6=6,7=101,11=9,25=1,30=1,70=2201,72=2,74=-40/1,2,3,8;
 4//1;
 5/5=2,38=5,53=2/2;
 8/6=1,10=2,108=20/1;
 9/41=20,42=1,48=1,70=2/14;
 6/7=2,8=2,9=2,10=2/1;
 99/5=1,9=1/99;
 Leave Link    1 at Thu Feb  6 13:21:09 2025, MaxMem= 25501368320 cpu:               3.5 elap:               0.1
 (Enter /share/Apps/gaussian/g16/l101.exe)
 --------------------------
 me-pai-me_anti-trans_tddft
 --------------------------
 Symbolic Z-matrix:
 Charge =  0 Multiplicity = 1
 N                     0.25979   0.65584  -0.0063 
 N                     0.9302   -0.40399  -0.00516 
 C                    -1.10655   0.50889  -0.00547 
 C                    -1.94852  -0.66524   0.00462 
 C                    -1.93978   1.6195   -0.01433 
 C                    -3.27171  -0.18322   0.00145 
 C                    -1.73124  -2.04531   0.01684 
 C                    -4.3749   -1.0288    0.00976 
 C                    -2.82589  -2.89331   0.02528 
 H                    -0.72269  -2.43122   0.01948 
 C                    -4.13317  -2.39224   0.02168 
 H                    -5.3857   -0.64077   0.00718 
 H                    -2.66994  -3.96548   0.03482 
 H                    -4.96954  -3.08065   0.02845 
 C                     2.33644  -0.21685  -0.00031 
 C                     3.10905  -1.37124  -0.05837 
 C                     2.97704   1.02337   0.06477 
 C                     4.49496  -1.29441  -0.05747 
 H                     2.60659  -2.32995  -0.10469 
 C                     4.35703   1.08949   0.06679 
 H                     2.37954   1.92308   0.11581 
 C                     5.14342  -0.06541   0.00411 
 H                     5.08034  -2.2059   -0.10393 
 H                     4.84245   2.05837   0.12016 
 N                    -3.23568   1.20378  -0.01032 
 C                    -4.42058   2.04025  -0.01718 
 H                    -5.02314   1.83748  -0.90392 
 H                    -5.02302   1.85219   0.87288 
 H                    -4.12963   3.08644  -0.02582 
 C                    -1.55066   3.05327  -0.02712 
 H                    -1.93513   3.57754   0.85093 
 H                    -0.46606   3.12711  -0.02818 
 H                    -1.93542   3.5616   -0.91437 
 C                     6.64471   0.03068  -0.00178 
 H                     7.00224   0.5234   -0.90979 
 H                     7.00562   0.61707   0.84631 
 H                     7.10535  -0.95627   0.04755 
 
 ITRead=  0  0  0  0  0  0  0  0  0  0  0  0  0  0  0  0  0  0  0  0
 ITRead=  0  0  0  0  0  0  0  0  0  0  0  0  0  0  0  0  0
 MicOpt= -1 -1 -1 -1 -1 -1 -1 -1 -1 -1 -1 -1 -1 -1 -1 -1 -1 -1 -1 -1
 MicOpt= -1 -1 -1 -1 -1 -1 -1 -1 -1 -1 -1 -1 -1 -1 -1 -1 -1
 NAtoms=     37 NQM=       37 NQMF=       0 NMMI=      0 NMMIF=      0
                NMic=       0 NMicF=      0.
                    Isotopes and Nuclear Properties:
 (Nuclear quadrupole moments (NQMom) in fm**2, nuclear magnetic moments (NMagM)
  in nuclear magnetons)

  Atom         1           2           3           4           5           6           7           8           9          10
 IAtWgt=          14          14          12          12          12          12          12          12          12           1
 AtmWgt=  14.0030740  14.0030740  12.0000000  12.0000000  12.0000000  12.0000000  12.0000000  12.0000000  12.0000000   1.0078250
 NucSpn=           2           2           0           0           0           0           0           0           0           1
 AtZEff=  -0.0000000  -0.0000000  -0.0000000  -0.0000000  -0.0000000  -0.0000000  -0.0000000  -0.0000000  -0.0000000  -0.0000000
 NQMom=    2.0440000   2.0440000   0.0000000   0.0000000   0.0000000   0.0000000   0.0000000   0.0000000   0.0000000   0.0000000
 NMagM=    0.4037610   0.4037610   0.0000000   0.0000000   0.0000000   0.0000000   0.0000000   0.0000000   0.0000000   2.7928460
 AtZNuc=   7.0000000   7.0000000   6.0000000   6.0000000   6.0000000   6.0000000   6.0000000   6.0000000   6.0000000   1.0000000

  Atom        11          12          13          14          15          16          17          18          19          20
 IAtWgt=          12           1           1           1          12          12          12          12           1          12
 AtmWgt=  12.0000000   1.0078250   1.0078250   1.0078250  12.0000000  12.0000000  12.0000000  12.0000000   1.0078250  12.0000000
 NucSpn=           0           1           1           1           0           0           0           0           1           0
 AtZEff=  -0.0000000  -0.0000000  -0.0000000  -0.0000000  -0.0000000  -0.0000000  -0.0000000  -0.0000000  -0.0000000  -0.0000000
 NQMom=    0.0000000   0.0000000   0.0000000   0.0000000   0.0000000   0.0000000   0.0000000   0.0000000   0.0000000   0.0000000
 NMagM=    0.0000000   2.7928460   2.7928460   2.7928460   0.0000000   0.0000000   0.0000000   0.0000000   2.7928460   0.0000000
 AtZNuc=   6.0000000   1.0000000   1.0000000   1.0000000   6.0000000   6.0000000   6.0000000   6.0000000   1.0000000   6.0000000

  Atom        21          22          23          24          25          26          27          28          29          30
 IAtWgt=           1          12           1           1          14          12           1           1           1          12
 AtmWgt=   1.0078250  12.0000000   1.0078250   1.0078250  14.0030740  12.0000000   1.0078250   1.0078250   1.0078250  12.0000000
 NucSpn=           1           0           1           1           2           0           1           1           1           0
 AtZEff=  -0.0000000  -0.0000000  -0.0000000  -0.0000000  -0.0000000  -0.0000000  -0.0000000  -0.0000000  -0.0000000  -0.0000000
 NQMom=    0.0000000   0.0000000   0.0000000   0.0000000   2.0440000   0.0000000   0.0000000   0.0000000   0.0000000   0.0000000
 NMagM=    2.7928460   0.0000000   2.7928460   2.7928460   0.4037610   0.0000000   2.7928460   2.7928460   2.7928460   0.0000000
 AtZNuc=   1.0000000   6.0000000   1.0000000   1.0000000   7.0000000   6.0000000   1.0000000   1.0000000   1.0000000   6.0000000

  Atom        31          32          33          34          35          36          37
 IAtWgt=           1           1           1          12           1           1           1
 AtmWgt=   1.0078250   1.0078250   1.0078250  12.0000000   1.0078250   1.0078250   1.0078250
 NucSpn=           1           1           1           0           1           1           1
 AtZEff=  -0.0000000  -0.0000000  -0.0000000  -0.0000000  -0.0000000  -0.0000000  -0.0000000
 NQMom=    0.0000000   0.0000000   0.0000000   0.0000000   0.0000000   0.0000000   0.0000000
 NMagM=    2.7928460   2.7928460   2.7928460   0.0000000   2.7928460   2.7928460   2.7928460
 AtZNuc=   1.0000000   1.0000000   1.0000000   6.0000000   1.0000000   1.0000000   1.0000000
 Leave Link  101 at Thu Feb  6 13:21:09 2025, MaxMem= 25501368320 cpu:               3.5 elap:               0.1
 (Enter /share/Apps/gaussian/g16/l202.exe)
                          Input orientation:                          
 ---------------------------------------------------------------------
 Center     Atomic      Atomic             Coordinates (Angstroms)
 Number     Number       Type             X           Y           Z
 ---------------------------------------------------------------------
      1          7           0        0.259790    0.655841   -0.006302
      2          7           0        0.930198   -0.403993   -0.005156
      3          6           0       -1.106553    0.508893   -0.005467
      4          6           0       -1.948523   -0.665236    0.004618
      5          6           0       -1.939775    1.619504   -0.014331
      6          6           0       -3.271707   -0.183217    0.001450
      7          6           0       -1.731236   -2.045313    0.016835
      8          6           0       -4.374901   -1.028795    0.009755
      9          6           0       -2.825891   -2.893306    0.025277
     10          1           0       -0.722685   -2.431218    0.019478
     11          6           0       -4.133168   -2.392244    0.021684
     12          1           0       -5.385705   -0.640772    0.007176
     13          1           0       -2.669937   -3.965475    0.034821
     14          1           0       -4.969537   -3.080649    0.028445
     15          6           0        2.336435   -0.216852   -0.000309
     16          6           0        3.109046   -1.371235   -0.058371
     17          6           0        2.977043    1.023369    0.064767
     18          6           0        4.494958   -1.294410   -0.057472
     19          1           0        2.606594   -2.329954   -0.104693
     20          6           0        4.357034    1.089489    0.066794
     21          1           0        2.379544    1.923075    0.115811
     22          6           0        5.143420   -0.065408    0.004106
     23          1           0        5.080337   -2.205901   -0.103933
     24          1           0        4.842451    2.058370    0.120163
     25          7           0       -3.235676    1.203780   -0.010320
     26          6           0       -4.420575    2.040246   -0.017176
     27          1           0       -5.023140    1.837484   -0.903922
     28          1           0       -5.023017    1.852189    0.872878
     29          1           0       -4.129634    3.086436   -0.025822
     30          6           0       -1.550660    3.053266   -0.027115
     31          1           0       -1.935130    3.577544    0.850929
     32          1           0       -0.466057    3.127107   -0.028183
     33          1           0       -1.935421    3.561602   -0.914365
     34          6           0        6.644710    0.030677   -0.001782
     35          1           0        7.002242    0.523398   -0.909787
     36          1           0        7.005617    0.617068    0.846314
     37          1           0        7.105352   -0.956265    0.047547
 ---------------------------------------------------------------------
                    Distance matrix (angstroms):
                    1          2          3          4          5
     1  N    0.000000
     2  N    1.254072   0.000000
     3  C    1.374223   2.231976   0.000000
     4  C    2.573327   2.890567   1.444851   0.000000
     5  C    2.401416   3.511605   1.388450   2.284835   0.000000
     6  C    3.629814   4.207706   2.273094   1.408250   2.241449
     7  C    3.355734   3.126923   2.629581   1.397131   3.670878
     8  C    4.931391   5.341786   3.612037   2.453469   3.597764
     9  C    4.703070   4.506197   3.812090   2.394681   4.599155
    10  H    3.239731   2.615773   2.965169   2.149789   4.229752
    11  C    5.346932   5.439810   4.192581   2.784874   4.572351
    12  H    5.792495   6.320352   4.430918   3.437270   4.121134
    13  H    5.471888   5.064259   4.739806   3.378303   5.632721
    14  H    6.427163   6.478618   5.273387   3.867986   5.592202
    15  C    2.252573   1.418643   3.518650   4.308357   4.653856
    16  C    3.497143   2.384485   4.616162   5.106996   5.868309
    17  C    2.742917   2.496363   4.116476   5.207322   4.953457
    18  C    4.662912   3.674656   5.884856   6.474424   7.063890
    19  H    3.798966   2.555296   4.675078   4.851013   6.022944
    20  C    4.120777   3.738833   5.494824   6.545455   6.319597
    21  H    2.472681   2.744172   3.763973   5.044193   4.331929
    22  C    4.936613   4.226815   6.276311   7.117264   7.280860
    23  H    5.606850   4.525515   6.757027   7.196548   7.995231
    24  H    4.794149   4.624355   6.148765   7.317698   6.797741
    25  N    3.538154   4.465363   2.239655   2.269407   1.360956
    26  C    4.880831   5.882620   3.650743   3.664853   2.516227
    27  H    5.487381   6.424503   4.232261   4.067225   3.216524
    28  H    5.487464   6.426669   4.232567   4.067409   3.216778
    29  H    5.017491   6.146985   3.972803   4.339725   2.635812
    30  C    3.004298   4.255324   2.582931   3.739861   1.485681
    31  H    3.753514   4.979520   3.291895   4.326385   2.140705
    32  H    2.575750   3.797200   2.695514   4.071934   2.108294
    33  H    3.753262   4.976382   3.291223   4.325605   2.140520
    34  C    6.415454   5.731021   7.766002   8.621368   8.730287
    35  H    6.804005   6.208714   8.159078   9.075527   9.053340
    36  H    6.799606   6.219187   8.157483   9.084568   9.042435
    37  H    7.033030   6.200025   8.341755   9.058653   9.404932
                    6          7          8          9         10
     6  C    0.000000
     7  C    2.416752   0.000000
     8  C    1.390003   2.832371   0.000000
     9  C    2.746616   1.384714   2.424062   0.000000
    10  H    3.398727   1.079863   3.912233   2.153377   0.000000
    11  C    2.371144   2.426863   1.384764   1.400018   3.410706
    12  H    2.162956   3.915095   1.082725   3.409822   4.994958
    13  H    3.829976   2.137406   3.395824   1.083494   2.479107
    14  H    3.358343   3.399801   2.136363   2.151819   4.296230
    15  C    5.608243   4.459766   6.760280   5.814952   3.776509
    16  C    6.490684   4.887573   7.492087   6.127575   3.976404
    17  C    6.364490   5.620231   7.633183   7.001139   5.062036
    18  C    7.845974   6.271752   8.874090   7.493874   5.340604
    19  H    6.258927   4.348857   7.102632   5.463163   3.333132
    20  C    7.734451   6.848103   8.985381   8.213330   6.180709
    21  H    6.032096   5.714579   7.372063   7.092410   5.347240
    22  C    8.415952   7.154095   9.566953   8.456203   6.325226
    23  H    8.594126   6.814536   9.528905   7.937107   5.808706
    24  H    8.418929   7.750113   9.721232   9.128613   7.151033
    25  N    1.387515   3.580598   2.506517   4.117682   4.419188
    26  C    2.502805   4.891369   3.069499   5.185051   5.802562
    27  H    2.823198   5.173059   3.077430   5.298272   6.129306
    28  H    2.823004   5.172925   3.076541   5.297689   6.129333
    29  H    3.380446   5.664714   4.122687   6.120431   6.484895
    30  C    3.665739   5.101965   4.963962   6.081996   5.546826
    31  H    4.080610   5.688041   5.280001   6.583848   6.185997
    32  H    4.339446   5.325095   5.705438   6.466610   5.564450
    33  H    4.080202   5.687383   5.279849   6.583441   6.185199
    34  C    9.918724   8.629400  11.070431   9.911745   7.767875
    35  H   10.338457   9.150439  11.519299  10.447029   8.322727
    36  H   10.343000   9.171091  11.529306  10.471646   8.348794
    37  H   10.405916   8.903497  11.480544  10.118410   7.965829
                   11         12         13         14         15
    11  C    0.000000
    12  H    2.153303   0.000000
    13  H    2.148551   4.292995   0.000000
    14  H    1.083264   2.475207   2.463964   0.000000
    15  C    6.825583   7.733771   6.254372   7.847253   0.000000
    16  C    7.314269   8.526351   6.335251   8.257914   1.390287
    17  C    7.888179   8.526912   7.535107   8.943848   1.397412
    18  C    8.698049   9.902471   7.647145   9.631962   2.413218
    19  H    6.741235   8.169620   5.525954   7.614396   2.132858
    20  C    9.176493   9.895369   8.656327  10.216479   2.407042
    21  H    7.813210   8.178276   7.757502   8.891225   2.143509
    22  C    9.563972  10.544834   8.732698  10.552922   2.811071
    23  H    9.216245  10.583006   7.948717  10.088740   3.390583
    24  H   10.018952  10.578909   9.629640  11.076689   3.386926
    25  N    3.706468   2.832897   5.200317   4.622132   5.750367
    26  C    4.441968   2.849548   6.255887   5.150437   7.124041
    27  H    4.420339   2.665203   6.331914   5.006018   7.694164
    28  H    4.419454   2.663801   6.331235   5.004879   7.694473
    29  H    5.478887   3.933304   7.201655   6.224253   7.261020
    30  C    6.027048   5.324910   7.107696   7.022586   5.079754
    31  H    6.415402   5.514760   7.622540   7.363127   5.776531
    32  H    6.626721   6.196862   7.427367   7.669470   4.363118
    33  H    6.415182   5.514857   7.622162   7.363033   5.775895
    34  C   11.046889  12.049141  10.135740  12.023810   4.315380
    35  H   11.548418  12.476271  10.704827  12.537660   4.810912
    36  H   11.567563  12.483236  10.736599  12.559711   4.818034
    37  H   11.329918  12.495106  10.227990  12.260355   4.826136
                   16         17         18         19         20
    16  C    0.000000
    17  C    2.401399   0.000000
    18  C    1.388040   2.773285   0.000000
    19  H    1.083396   3.377976   2.154182   0.000000
    20  C    2.761938   1.381576   2.391117   3.845262   0.000000
    21  H    3.378608   1.081241   3.854506   4.264789   2.146564
    22  C    2.418215   2.425346   1.390950   3.402277   1.398614
    23  H    2.141199   3.857524   1.084271   2.476852   3.378152
    24  H    3.846915   2.134020   3.375417   4.930213   1.084992
    25  N    6.847518   6.215791   8.124400   6.828492   7.593962
    26  C    8.266504   7.467631   9.518838   8.275712   8.829349
    27  H    8.783125   8.099634  10.055816   8.730358   9.459886
    28  H    8.797053   8.083375  10.067695   8.755394   9.445467
    29  H    8.501199   7.400629   9.673490   8.644089   8.718940
    30  C    6.425733   4.962763   7.446657   6.802047   6.226242
    31  H    7.124672   5.592075   8.118322   7.512590   6.811506
    32  H    5.746073   4.035999   6.645475   6.263110   5.236708
    33  H    7.107197   5.615481   8.103388   7.483041   6.831472
    34  C    3.803877   3.800217   2.525944   4.678627   2.521755
    35  H    4.412654   4.171565   3.212062   5.302029   2.875986
    36  H    4.467110   4.123749   3.282375   5.379661   2.801040
    37  H    4.019189   4.578448   2.634298   4.706275   3.426183
                   21         22         23         24         25
    21  H    0.000000
    22  C    3.406692   0.000000
    23  H    4.938726   2.144146   0.000000
    24  H    2.466624   2.148135   4.276776   0.000000
    25  N    5.662507   8.474686   8.988368   8.124253   0.000000
    26  C    6.802428   9.793071  10.406951   9.264062   1.450416
    27  H    7.473079  10.382892  10.911883   9.921060   2.096457
    28  H    7.441511  10.382118  10.931606   9.896290   2.096440
    29  H    6.613839   9.794108  10.622547   9.031973   2.084177
    30  C    4.091975   7.384972   8.463738   6.471737   2.502031
    31  H    4.679111   8.005878   9.142033   6.984090   2.840409
    32  H    3.093198   6.454411   7.694751   5.417053   3.371987
    33  H    4.729160   8.006796   9.118210   7.019224   2.840297
    34  C    4.667616   1.504373   2.731296   2.715612   9.949787
    35  H    4.937639   2.153395   3.433976   2.842821  10.299851
    36  H    4.862082   2.154731   3.546664   2.698876  10.293791
    37  H    5.534304   2.155154   2.384370   3.770148  10.564374
                   26         27         28         29         30
    26  C    0.000000
    27  H    1.091107   0.000000
    28  H    1.091099   1.776861   0.000000
    29  H    1.085926   1.768981   1.768943   0.000000
    30  C    3.043472   3.782200   3.782834   2.579188   0.000000
    31  H    3.048660   3.955138   3.537284   2.413654   1.092541
    32  H    4.101171   4.816332   4.816971   3.663804   1.087114
    33  H    3.048846   3.536481   3.955955   2.414511   1.092547
    34  C   11.246294  11.841332  11.841401  11.199318   8.735032
    35  H   11.557609  12.096969  12.229081  11.457278   8.962783
    36  H   11.546814  12.216535  12.091909  11.439065   8.939117
    37  H   11.909251  12.482413  12.476615  11.940424   9.539835
                   31         32         33         34         35
    31  H    0.000000
    32  H    1.770284   0.000000
    33  H    1.765366   1.770066   0.000000
    34  C    9.323145   7.755745   9.323030   0.000000
    35  H    9.607526   7.958141   9.439943   1.093195   0.000000
    36  H    9.418142   7.930382   9.576661   1.092417   1.758601
    37  H   10.145500   8.602668  10.152437   1.090266   1.765368
                   36         37
    36  H    0.000000
    37  H    1.767301   0.000000
 Stoichiometry    C17H17N3
 Framework group  C1[X(C17H17N3)]
 Deg. of freedom   105
 Full point group                 C1      NOp   1
 Largest Abelian subgroup         C1      NOp   1
 Largest concise Abelian subgroup C1      NOp   1
                         Standard orientation:                         
 ---------------------------------------------------------------------
 Center     Atomic      Atomic             Coordinates (Angstroms)
 Number     Number       Type             X           Y           Z
 ---------------------------------------------------------------------
      1          7           0       -0.259790    0.655841    0.006302
      2          7           0       -0.930198   -0.403993    0.005156
      3          6           0        1.106553    0.508893    0.005467
      4          6           0        1.948523   -0.665236   -0.004618
      5          6           0        1.939775    1.619504    0.014331
      6          6           0        3.271707   -0.183217   -0.001450
      7          6           0        1.731236   -2.045313   -0.016835
      8          6           0        4.374901   -1.028795   -0.009755
      9          6           0        2.825891   -2.893306   -0.025277
     10          1           0        0.722685   -2.431218   -0.019478
     11          6           0        4.133168   -2.392244   -0.021684
     12          1           0        5.385705   -0.640772   -0.007176
     13          1           0        2.669937   -3.965475   -0.034821
     14          1           0        4.969537   -3.080649   -0.028445
     15          6           0       -2.336435   -0.216852    0.000309
     16          6           0       -3.109046   -1.371235    0.058371
     17          6           0       -2.977043    1.023369   -0.064767
     18          6           0       -4.494958   -1.294410    0.057472
     19          1           0       -2.606594   -2.329954    0.104693
     20          6           0       -4.357034    1.089489   -0.066794
     21          1           0       -2.379544    1.923075   -0.115811
     22          6           0       -5.143420   -0.065408   -0.004106
     23          1           0       -5.080337   -2.205901    0.103933
     24          1           0       -4.842451    2.058370   -0.120163
     25          7           0        3.235676    1.203780    0.010320
     26          6           0        4.420575    2.040246    0.017176
     27          1           0        5.023140    1.837484    0.903922
     28          1           0        5.023017    1.852189   -0.872878
     29          1           0        4.129634    3.086436    0.025822
     30          6           0        1.550660    3.053266    0.027115
     31          1           0        1.935130    3.577544   -0.850929
     32          1           0        0.466057    3.127107    0.028183
     33          1           0        1.935421    3.561602    0.914365
     34          6           0       -6.644710    0.030677    0.001782
     35          1           0       -7.002242    0.523398    0.909787
     36          1           0       -7.005617    0.617068   -0.846314
     37          1           0       -7.105352   -0.956265   -0.047547
 ---------------------------------------------------------------------
 Rotational constants (GHZ):           0.7880364           0.1587545           0.1324812
 Leave Link  202 at Thu Feb  6 13:21:09 2025, MaxMem= 25501368320 cpu:               0.4 elap:               0.0
 (Enter /share/Apps/gaussian/g16/l301.exe)
 Standard basis: 6-311G(d,p) (5D, 7F)
 Ernie: Thresh=  0.10000D-02 Tol=  0.10000D-05 Strict=F.
 There are   482 symmetry adapted cartesian basis functions of A   symmetry.
 There are   462 symmetry adapted basis functions of A   symmetry.
   462 basis functions,   776 primitive gaussians,   482 cartesian basis functions
    70 alpha electrons       70 beta electrons
       nuclear repulsion energy      1398.9252840130 Hartrees.
 IExCor=20419 DFT=T Ex+Corr=CAM-B3LYP ExCW=0 ScaHFX=  1.000000
 ScaDFX=  1.000000  1.000000  1.000000  0.810000 ScalE2=  1.000000  1.000000
 IRadAn=      5 IRanWt=     -1 IRanGd=            0 ICorTp=0 IEmpDi=  4
 HFx  wShort=  0.000000 wLong=  0.330000 cFull=  0.190000 cShort=  0.000000 cLong=  0.460000
 DFx  wShort=  0.000000 wLong=  0.330000 cFull=  0.190000 cShort=  0.000000 cLong=  0.460000
 NAtoms=   37 NActive=   37 NUniq=   37 SFac= 1.00D+00 NAtFMM=   60 NAOKFM=F Big=F
 Integral buffers will be    131072 words long.
 Raffenetti 1 integral format.
 Two-electron integral symmetry is turned on.
 ------------------------------------------------------------------------------
 Polarizable Continuum Model (PCM)
 =================================
 Model                : PCM.
 Atomic radii         : UFF (Universal Force Field).
 Polarization charges : Total charges.
 Charge compensation  : None.
 Solution method      : On-the-fly selection.
 Cavity type          : Scaled VdW (van der Waals Surface) (Alpha=1.100).
 Cavity algorithm     : GePol (No added spheres)
                        Default sphere list used, NSphG=   37.
                        Lebedev-Laikov grids with approx.  5.0 points / Ang**2.
                        Smoothing algorithm: York/Karplus (Gamma=1.0000).
                        Polarization charges: spherical gaussians, with
                                              point-specific exponents (IZeta= 3).
                        Self-potential: point-specific (ISelfS= 7).
                        Self-field    : sphere-specific E.n sum rule (ISelfD= 2).
 Solvent              : Acetonitrile, Eps=  35.688000 Eps(inf)=   1.806874
 ------------------------------------------------------------------------------
 GePol: Number of generator spheres                  =      37
 GePol: Total number of spheres                      =      37
 GePol: Number of exposed spheres                    =      37 (100.00%)
 GePol: Number of points                             =    2817
 GePol: Average weight of points                     =       0.13
 GePol: Minimum weight of points                     =   0.10D-09
 GePol: Maximum weight of points                     =    0.20577
 GePol: Number of points with low weight             =     200
 GePol: Fraction of low-weight points (<1% of avg)   =       7.10%
 GePol: Cavity surface area                          =    358.970 Ang**2
 GePol: Cavity volume                                =    385.475 Ang**3
 Leave Link  301 at Thu Feb  6 13:21:10 2025, MaxMem= 25501368320 cpu:               3.6 elap:               0.1
 (Enter /share/Apps/gaussian/g16/l302.exe)
 NPDir=0 NMtPBC=     1 NCelOv=     1 NCel=       1 NClECP=     1 NCelD=      1
         NCelK=      1 NCelE2=     1 NClLst=     1 CellRange=     0.0.
 One-electron integrals computed using PRISM.
 One-electron integral symmetry used in STVInt
 NBasis=   462 RedAO= T EigKep=  1.25D-04  NBF=   462
 NBsUse=   462 1.00D-06 EigRej= -1.00D+00 NBFU=   462
 Precomputing XC quadrature grid using
 IXCGrd= 4 IRadAn=           5 IRanWt=          -1 IRanGd=           0 AccXCQ= 0.00D+00.
 Generated NRdTot=       0 NPtTot=           0 NUsed=           0 NTot=          32
 NSgBfM=   476   476   476   476   476 MxSgAt=    37 MxSgA2=    37.
 Leave Link  302 at Thu Feb  6 13:21:10 2025, MaxMem= 25501368320 cpu:              13.7 elap:               0.4
 (Enter /share/Apps/gaussian/g16/l303.exe)
 DipDrv:  MaxL=1.
 Leave Link  303 at Thu Feb  6 13:21:10 2025, MaxMem= 25501368320 cpu:               1.5 elap:               0.1
 (Enter /share/Apps/gaussian/g16/l308.exe)
 Leave Link  308 at Thu Feb  6 13:21:10 2025, MaxMem= 25501368320 cpu:               2.3 elap:               0.1
 (Enter /share/Apps/gaussian/g16/l401.exe)
 ExpMin= 1.03D-01 ExpMax= 6.29D+03 ExpMxC= 9.49D+02 IAcc=3 IRadAn=         5 AccDes= 0.00D+00
 Harris functional with IExCor=20419 and IRadAn=       5 diagonalized for initial guess.
 HarFok:  IExCor=20419 AccDes= 0.00D+00 IRadAn=         5 IDoV= 1 UseB2=F ITyADJ=14
 ICtDFT=  3500011 ScaDFX=  1.000000  1.000000  1.000000  1.000000
 FoFCou: FMM=F IPFlag=           0 FMFlag=      100000 FMFlg1=           0
         NFxFlg=           0 DoJE=T BraDBF=F KetDBF=T FulRan=T
         wScrn=  0.000000 ICntrl=       500 IOpCl=  0 I1Cent=   200000004 NGrid=           0
         NMat0=    1 NMatS0=      1 NMatT0=    0 NMatD0=    1 NMtDS0=    0 NMtDT0=    0
 Petite list used in FoFCou.
 Harris En= -789.073859466930    
 JPrj=0 DoOrth=F DoCkMO=F.
 Leave Link  401 at Thu Feb  6 13:21:11 2025, MaxMem= 25501368320 cpu:              26.2 elap:               0.8
 (Enter /share/Apps/gaussian/g16/l502.exe)
 Integral symmetry usage will be decided dynamically.
 Closed shell SCF:
 Using DIIS extrapolation, IDIIS=  1040.
 NGot= 25501368320 LenX= 25500880634 LenY= 25500647828
 Requested convergence on RMS density matrix=1.00D-08 within 128 cycles.
 Requested convergence on MAX density matrix=1.00D-06.
 Requested convergence on             energy=1.00D-06.
 No special actions if energy rises.
 Fock matrices will be formed incrementally for  20 cycles.

 Cycle   1  Pass 1  IDiag  1:
 FoFJK:  IHMeth= 1 ICntrl=       0 DoSepK=T KAlg= 0 I1Cent=           0 FoldK=F
 IRaf=         1 NMat=       1 IRICut=       1 DoRegI=T DoRafI=F ISym2E= 0 IDoP0=0 IntGTp=1.
 FoFCou: FMM=F IPFlag=           0 FMFlag=      100000 FMFlg1=           0
         NFxFlg=           0 DoJE=T BraDBF=F KetDBF=F FulRan=T
         wScrn=  0.000000 ICntrl=       500 IOpCl=  0 I1Cent=           0 NGrid=           0
         NMat0=    1 NMatS0=      1 NMatT0=    0 NMatD0=    1 NMtDS0=    0 NMtDT0=    0
 Symmetry not used in FoFCou.
 Inv3:  Mode=1 IEnd=    23806467.
 Iteration    1 A*A^-1 deviation from unit magnitude is 3.66D-15 for   1018.
 Iteration    1 A*A^-1 deviation from orthogonality  is 1.96D-15 for   1919    856.
 Iteration    1 A^-1*A deviation from unit magnitude is 4.11D-15 for   1018.
 Iteration    1 A^-1*A deviation from orthogonality  is 2.01D-15 for   1650    239.
 E= -821.758879547898    
 DIIS: error= 5.67D-02 at cycle   1 NSaved=   1.
 NSaved= 1 IEnMin= 1 EnMin= -821.758879547898     IErMin= 1 ErrMin= 5.67D-02
 ErrMax= 5.67D-02  0.00D+00 EMaxC= 1.00D-01 BMatC= 1.44D+00 BMatP= 1.44D+00
 IDIUse=3 WtCom= 4.33D-01 WtEn= 5.67D-01
 Coeff-Com:  0.100D+01
 Coeff-En:   0.100D+01
 Coeff:      0.100D+01
 Gap=     0.325 Goal=   None    Shift=    0.000
 GapD=    0.325 DampG=1.000 DampE=0.500 DampFc=0.5000 IDamp=-1.
 Damping current iteration by 5.00D-01
 RMSDP=3.31D-03 MaxDP=2.20D-01              OVMax= 1.66D-01

 Cycle   2  Pass 1  IDiag  1:
 RMSU=  1.42D-03    CP:  9.18D-01
 E= -821.885437898470     Delta-E=       -0.126558350572 Rises=F Damp=T
 DIIS: error= 2.60D-02 at cycle   2 NSaved=   2.
 NSaved= 2 IEnMin= 2 EnMin= -821.885437898470     IErMin= 2 ErrMin= 2.60D-02
 ErrMax= 2.60D-02  0.00D+00 EMaxC= 1.00D-01 BMatC= 2.96D-01 BMatP= 1.44D+00
 IDIUse=3 WtCom= 7.40D-01 WtEn= 2.60D-01
 Coeff-Com: -0.533D+00 0.153D+01
 Coeff-En:   0.000D+00 0.100D+01
 Coeff:     -0.395D+00 0.139D+01
 Gap=     0.290 Goal=   None    Shift=    0.000
 RMSDP=1.16D-03 MaxDP=7.70D-02 DE=-1.27D-01 OVMax= 1.70D-01

 Cycle   3  Pass 1  IDiag  1:
 RMSU=  8.88D-04    CP:  9.62D-01  5.81D-01
 E= -821.962938890907     Delta-E=       -0.077500992437 Rises=F Damp=F
 DIIS: error= 1.81D-02 at cycle   3 NSaved=   3.
 NSaved= 3 IEnMin= 3 EnMin= -821.962938890907     IErMin= 3 ErrMin= 1.81D-02
 ErrMax= 1.81D-02  0.00D+00 EMaxC= 1.00D-01 BMatC= 8.03D-02 BMatP= 2.96D-01
 IDIUse=3 WtCom= 8.19D-01 WtEn= 1.81D-01
 Coeff-Com: -0.334D+00 0.722D+00 0.612D+00
 Coeff-En:   0.000D+00 0.000D+00 0.100D+01
 Coeff:     -0.273D+00 0.591D+00 0.682D+00
 Gap=     0.235 Goal=   None    Shift=    0.000
 RMSDP=1.38D-03 MaxDP=1.04D-01 DE=-7.75D-02 OVMax= 6.87D-02

 Cycle   4  Pass 1  IDiag  1:
 RMSU=  2.05D-04    CP:  8.93D-01  1.36D+00  5.56D-01
 E= -822.027722786456     Delta-E=       -0.064783895549 Rises=F Damp=F
 DIIS: error= 6.79D-03 at cycle   4 NSaved=   4.
 NSaved= 4 IEnMin= 4 EnMin= -822.027722786456     IErMin= 4 ErrMin= 6.79D-03
 ErrMax= 6.79D-03  0.00D+00 EMaxC= 1.00D-01 BMatC= 6.69D-03 BMatP= 8.03D-02
 IDIUse=3 WtCom= 9.32D-01 WtEn= 6.79D-02
 Coeff-Com: -0.143D+00 0.310D+00 0.375D+00 0.458D+00
 Coeff-En:   0.000D+00 0.000D+00 0.000D+00 0.100D+01
 Coeff:     -0.133D+00 0.289D+00 0.350D+00 0.495D+00
 Gap=     0.218 Goal=   None    Shift=    0.000
 RMSDP=1.55D-04 MaxDP=1.35D-02 DE=-6.48D-02 OVMax= 1.75D-02

 Cycle   5  Pass 1  IDiag  1:
 RMSU=  8.47D-05    CP:  8.98D-01  1.29D+00  6.24D-01  9.75D-01
 E= -822.033050524264     Delta-E=       -0.005327737808 Rises=F Damp=F
 DIIS: error= 9.03D-04 at cycle   5 NSaved=   5.
 NSaved= 5 IEnMin= 5 EnMin= -822.033050524264     IErMin= 5 ErrMin= 9.03D-04
 ErrMax= 9.03D-04  0.00D+00 EMaxC= 1.00D-01 BMatC= 1.04D-04 BMatP= 6.69D-03
 IDIUse=3 WtCom= 9.91D-01 WtEn= 9.03D-03
 Coeff-Com:  0.510D-02-0.111D-01 0.120D-01 0.146D+00 0.848D+00
 Coeff-En:   0.000D+00 0.000D+00 0.000D+00 0.000D+00 0.100D+01
 Coeff:      0.506D-02-0.110D-01 0.119D-01 0.145D+00 0.849D+00
 Gap=     0.220 Goal=   None    Shift=    0.000
 RMSDP=3.31D-05 MaxDP=1.54D-03 DE=-5.33D-03 OVMax= 6.23D-03

 Cycle   6  Pass 1  IDiag  1:
 RMSU=  2.31D-05    CP:  8.98D-01  1.29D+00  6.34D-01  1.05D+00  8.92D-01
 E= -822.033184025704     Delta-E=       -0.000133501439 Rises=F Damp=F
 DIIS: error= 2.47D-04 at cycle   6 NSaved=   6.
 NSaved= 6 IEnMin= 6 EnMin= -822.033184025704     IErMin= 6 ErrMin= 2.47D-04
 ErrMax= 2.47D-04  0.00D+00 EMaxC= 1.00D-01 BMatC= 2.32D-05 BMatP= 1.04D-04
 IDIUse=3 WtCom= 9.98D-01 WtEn= 2.47D-03
 Coeff-Com:  0.198D-01-0.432D-01-0.418D-01 0.296D-02 0.422D+00 0.640D+00
 Coeff-En:   0.000D+00 0.000D+00 0.000D+00 0.000D+00 0.000D+00 0.100D+01
 Coeff:      0.198D-01-0.431D-01-0.417D-01 0.295D-02 0.421D+00 0.641D+00
 Gap=     0.220 Goal=   None    Shift=    0.000
 RMSDP=3.74D-05 MaxDP=3.01D-03 DE=-1.34D-04 OVMax= 1.95D-03

 Cycle   7  Pass 1  IDiag  1:
 RMSU=  7.70D-06    CP:  8.96D-01  1.31D+00  6.27D-01  1.11D+00  1.05D+00
                    CP:  9.96D-01
 E= -822.033211463447     Delta-E=       -0.000027437743 Rises=F Damp=F
 DIIS: error= 8.55D-05 at cycle   7 NSaved=   7.
 NSaved= 7 IEnMin= 7 EnMin= -822.033211463447     IErMin= 7 ErrMin= 8.55D-05
 ErrMax= 8.55D-05  0.00D+00 EMaxC= 1.00D-01 BMatC= 8.41D-07 BMatP= 2.32D-05
 IDIUse=1 WtCom= 1.00D+00 WtEn= 0.00D+00
 Coeff-Com:  0.250D-02-0.548D-02-0.819D-02-0.156D-01 0.160D-02 0.114D+00
 Coeff-Com:  0.912D+00
 Coeff:      0.250D-02-0.548D-02-0.819D-02-0.156D-01 0.160D-02 0.114D+00
 Coeff:      0.912D+00
 Gap=     0.220 Goal=   None    Shift=    0.000
 RMSDP=7.94D-06 MaxDP=4.87D-04 DE=-2.74D-05 OVMax= 1.20D-03

 Cycle   8  Pass 1  IDiag  1:
 RMSU=  2.93D-06    CP:  8.95D-01  1.31D+00  6.26D-01  1.12D+00  1.08D+00
                    CP:  1.12D+00  1.14D+00
 E= -822.033213980148     Delta-E=       -0.000002516701 Rises=F Damp=F
 DIIS: error= 3.39D-05 at cycle   8 NSaved=   8.
 NSaved= 8 IEnMin= 8 EnMin= -822.033213980148     IErMin= 8 ErrMin= 3.39D-05
 ErrMax= 3.39D-05  0.00D+00 EMaxC= 1.00D-01 BMatC= 3.93D-07 BMatP= 8.41D-07
 IDIUse=1 WtCom= 1.00D+00 WtEn= 0.00D+00
 Coeff-Com: -0.164D-02 0.359D-02 0.178D-02-0.902D-02-0.597D-01-0.589D-01
 Coeff-Com:  0.433D+00 0.691D+00
 Coeff:     -0.164D-02 0.359D-02 0.178D-02-0.902D-02-0.597D-01-0.589D-01
 Coeff:      0.433D+00 0.691D+00
 Gap=     0.220 Goal=   None    Shift=    0.000
 RMSDP=3.76D-06 MaxDP=2.79D-04 DE=-2.52D-06 OVMax= 4.06D-04

 Cycle   9  Pass 1  IDiag  1:
 RMSU=  1.19D-06    CP:  8.95D-01  1.32D+00  6.25D-01  1.13D+00  1.09D+00
                    CP:  1.16D+00  1.28D+00  9.46D-01
 E= -822.033214585705     Delta-E=       -0.000000605557 Rises=F Damp=F
 DIIS: error= 1.20D-05 at cycle   9 NSaved=   9.
 NSaved= 9 IEnMin= 9 EnMin= -822.033214585705     IErMin= 9 ErrMin= 1.20D-05
 ErrMax= 1.20D-05  0.00D+00 EMaxC= 1.00D-01 BMatC= 2.62D-08 BMatP= 3.93D-07
 IDIUse=1 WtCom= 1.00D+00 WtEn= 0.00D+00
 Coeff-Com: -0.806D-03 0.176D-02 0.133D-02-0.157D-02-0.168D-01-0.375D-01
 Coeff-Com:  0.402D-01 0.188D+00 0.825D+00
 Coeff:     -0.806D-03 0.176D-02 0.133D-02-0.157D-02-0.168D-01-0.375D-01
 Coeff:      0.402D-01 0.188D+00 0.825D+00
 Gap=     0.221 Goal=   None    Shift=    0.000
 RMSDP=1.10D-06 MaxDP=6.09D-05 DE=-6.06D-07 OVMax= 2.15D-04

 Cycle  10  Pass 1  IDiag  1:
 RMSU=  4.51D-07    CP:  8.95D-01  1.32D+00  6.25D-01  1.13D+00  1.09D+00
                    CP:  1.17D+00  1.32D+00  1.09D+00  1.13D+00
 E= -822.033214650273     Delta-E=       -0.000000064568 Rises=F Damp=F
 DIIS: error= 5.49D-06 at cycle  10 NSaved=  10.
 NSaved=10 IEnMin=10 EnMin= -822.033214650273     IErMin=10 ErrMin= 5.49D-06
 ErrMax= 5.49D-06  0.00D+00 EMaxC= 1.00D-01 BMatC= 4.22D-09 BMatP= 2.62D-08
 IDIUse=1 WtCom= 1.00D+00 WtEn= 0.00D+00
 Coeff-Com: -0.354D-04 0.667D-04 0.161D-03 0.713D-03 0.399D-02-0.450D-02
 Coeff-Com: -0.459D-01-0.587D-01 0.231D+00 0.873D+00
 Coeff:     -0.354D-04 0.667D-04 0.161D-03 0.713D-03 0.399D-02-0.450D-02
 Coeff:     -0.459D-01-0.587D-01 0.231D+00 0.873D+00
 Gap=     0.221 Goal=   None    Shift=    0.000
 RMSDP=5.75D-07 MaxDP=4.13D-05 DE=-6.46D-08 OVMax= 1.08D-04

 Cycle  11  Pass 1  IDiag  1:
 RMSU=  1.56D-07    CP:  8.95D-01  1.32D+00  6.25D-01  1.13D+00  1.10D+00
                    CP:  1.17D+00  1.34D+00  1.13D+00  1.33D+00  1.17D+00
 E= -822.033214662664     Delta-E=       -0.000000012391 Rises=F Damp=F
 DIIS: error= 1.73D-06 at cycle  11 NSaved=  11.
 NSaved=11 IEnMin=11 EnMin= -822.033214662664     IErMin=11 ErrMin= 1.73D-06
 ErrMax= 1.73D-06  0.00D+00 EMaxC= 1.00D-01 BMatC= 7.42D-10 BMatP= 4.22D-09
 IDIUse=1 WtCom= 1.00D+00 WtEn= 0.00D+00
 Coeff-Com:  0.119D-03-0.263D-03-0.165D-03 0.481D-03 0.410D-02 0.428D-02
 Coeff-Com: -0.205D-01-0.501D-01-0.518D-01 0.293D+00 0.821D+00
 Coeff:      0.119D-03-0.263D-03-0.165D-03 0.481D-03 0.410D-02 0.428D-02
 Coeff:     -0.205D-01-0.501D-01-0.518D-01 0.293D+00 0.821D+00
 Gap=     0.221 Goal=   None    Shift=    0.000
 RMSDP=1.72D-07 MaxDP=5.99D-06 DE=-1.24D-08 OVMax= 4.09D-05

 Cycle  12  Pass 1  IDiag  1:
 RMSU=  7.56D-08    CP:  8.95D-01  1.32D+00  6.25D-01  1.13D+00  1.10D+00
                    CP:  1.17D+00  1.34D+00  1.15D+00  1.38D+00  1.42D+00
                    CP:  1.24D+00
 E= -822.033214664634     Delta-E=       -0.000000001970 Rises=F Damp=F
 DIIS: error= 1.02D-06 at cycle  12 NSaved=  12.
 NSaved=12 IEnMin=12 EnMin= -822.033214664634     IErMin=12 ErrMin= 1.02D-06
 ErrMax= 1.02D-06  0.00D+00 EMaxC= 1.00D-01 BMatC= 1.22D-10 BMatP= 7.42D-10
 IDIUse=1 WtCom= 1.00D+00 WtEn= 0.00D+00
 Coeff-Com:  0.550D-04-0.118D-03-0.960D-04 0.506D-04 0.806D-03 0.247D-02
 Coeff-Com:  0.976D-03-0.746D-02-0.580D-01-0.313D-01 0.314D+00 0.778D+00
 Coeff:      0.550D-04-0.118D-03-0.960D-04 0.506D-04 0.806D-03 0.247D-02
 Coeff:      0.976D-03-0.746D-02-0.580D-01-0.313D-01 0.314D+00 0.778D+00
 Gap=     0.221 Goal=   None    Shift=    0.000
 RMSDP=5.65D-08 MaxDP=2.67D-06 DE=-1.97D-09 OVMax= 1.86D-05

 Cycle  13  Pass 1  IDiag  1:
 RMSU=  2.85D-08    CP:  8.95D-01  1.32D+00  6.25D-01  1.13D+00  1.10D+00
                    CP:  1.17D+00  1.34D+00  1.16D+00  1.40D+00  1.47D+00
                    CP:  1.43D+00  9.67D-01
 E= -822.033214664951     Delta-E=       -0.000000000317 Rises=F Damp=F
 DIIS: error= 3.25D-07 at cycle  13 NSaved=  13.
 NSaved=13 IEnMin=13 EnMin= -822.033214664951     IErMin=13 ErrMin= 3.25D-07
 ErrMax= 3.25D-07  0.00D+00 EMaxC= 1.00D-01 BMatC= 3.87D-11 BMatP= 1.22D-10
 IDIUse=1 WtCom= 1.00D+00 WtEn= 0.00D+00
 Coeff-Com:  0.476D-05-0.923D-05-0.106D-04-0.458D-04-0.338D-03 0.497D-03
 Coeff-Com:  0.355D-02 0.506D-02-0.208D-01-0.721D-01-0.329D-01 0.369D+00
 Coeff-Com:  0.748D+00
 Coeff:      0.476D-05-0.923D-05-0.106D-04-0.458D-04-0.338D-03 0.497D-03
 Coeff:      0.355D-02 0.506D-02-0.208D-01-0.721D-01-0.329D-01 0.369D+00
 Coeff:      0.748D+00
 Gap=     0.221 Goal=   None    Shift=    0.000
 RMSDP=3.94D-08 MaxDP=1.47D-06 DE=-3.17D-10 OVMax= 7.03D-06

 Cycle  14  Pass 1  IDiag  1:
 RMSU=  1.28D-08    CP:  8.95D-01  1.32D+00  6.25D-01  1.13D+00  1.10D+00
                    CP:  1.17D+00  1.34D+00  1.16D+00  1.41D+00  1.52D+00
                    CP:  1.52D+00  1.21D+00  9.13D-01
 E= -822.033214665012     Delta-E=       -0.000000000061 Rises=F Damp=F
 DIIS: error= 1.39D-07 at cycle  14 NSaved=  14.
 NSaved=14 IEnMin=14 EnMin= -822.033214665012     IErMin=14 ErrMin= 1.39D-07
 ErrMax= 1.39D-07  0.00D+00 EMaxC= 1.00D-01 BMatC= 4.43D-12 BMatP= 3.87D-11
 IDIUse=1 WtCom= 1.00D+00 WtEn= 0.00D+00
 Coeff-Com: -0.455D-05 0.103D-04 0.758D-05-0.293D-04-0.268D-03-0.569D-04
 Coeff-Com:  0.165D-02 0.338D-02-0.208D-02-0.281D-01-0.528D-01 0.107D+00
 Coeff-Com:  0.362D+00 0.609D+00
 Coeff:     -0.455D-05 0.103D-04 0.758D-05-0.293D-04-0.268D-03-0.569D-04
 Coeff:      0.165D-02 0.338D-02-0.208D-02-0.281D-01-0.528D-01 0.107D+00
 Coeff:      0.362D+00 0.609D+00
 Gap=     0.221 Goal=   None    Shift=    0.000
 RMSDP=6.62D-09 MaxDP=2.96D-07 DE=-6.12D-11 OVMax= 9.85D-07

 Error on total polarization charges =  0.01598
 SCF Done:  E(RCAM-B3LYP) =  -822.033214665     A.U. after   14 cycles
            NFock= 14  Conv=0.66D-08     -V/T= 2.0034
 KE= 8.192568453845D+02 PE=-4.709776378134D+03 EE= 1.669561034071D+03
 Leave Link  502 at Thu Feb  6 13:21:49 2025, MaxMem= 25501368320 cpu:            1319.7 elap:              37.7
 (Enter /share/Apps/gaussian/g16/l801.exe)
 DoSCS=F DFT=T ScalE2(SS,OS)=  1.000000  1.000000
 ExpMin= 1.03D-01 ExpMax= 6.29D+03 ExpMxC= 9.49D+02 IAcc=3 IRadAn=         5 AccDes= 0.00D+00
 HarFok:  IExCor=  205 AccDes= 0.00D+00 IRadAn=         5 IDoV=-2 UseB2=F ITyADJ=14
 ICtDFT= 12500011 ScaDFX=  1.000000  1.000000  1.000000  1.000000
 Largest valence mixing into a core orbital is  5.12D-05
 Largest core mixing into a valence orbital is  1.71D-05
 Range of M.O.s used for correlation:    21   462
 NBasis=   462 NAE=    70 NBE=    70 NFC=    20 NFV=     0
 NROrb=    442 NOA=    50 NOB=    50 NVA=   392 NVB=   392

 **** Warning!!: The largest alpha MO coefficient is  0.21152260D+02

 Leave Link  801 at Thu Feb  6 13:21:50 2025, MaxMem= 25501368320 cpu:               8.1 elap:               0.3
 (Enter /share/Apps/gaussian/g16/l914.exe)
 RHF ground state
 Two-electron integrals replicated using symmetry.
 MDV= 25501368320 DFT=T DoStab=F Mixed=T DoRPA=T DoScal=F NonHer=T
 NEqPCM:  Using non-equilibrium solvation (IEInf=1, Eps=  35.6880, EpsInf=   1.8069)
 Inv3:  Mode=1 IEnd=    23806467.
 Iteration    1 A*A^-1 deviation from unit magnitude is 3.44D-15 for    503.
 Iteration    1 A*A^-1 deviation from orthogonality  is 2.31D-15 for   2281   1892.
 Iteration    1 A^-1*A deviation from unit magnitude is 3.66D-15 for    503.
 Iteration    1 A^-1*A deviation from orthogonality  is 1.48D-15 for   2518    165.
 Making orbital integer symmetry assigments:
 Orbital symmetries:
       Occupied  (A) (A) (A) (A) (A) (A) (A) (A) (A) (A) (A) (A)
                 (A) (A) (A) (A) (A) (A) (A) (A) (A) (A) (A) (A)
                 (A) (A) (A) (A) (A) (A) (A) (A) (A) (A) (A) (A)
                 (A) (A) (A) (A) (A) (A) (A) (A) (A) (A) (A) (A)
                 (A) (A) (A) (A) (A) (A) (A) (A) (A) (A) (A) (A)
                 (A) (A) (A) (A) (A) (A) (A) (A) (A) (A)
       Virtual   (A) (A) (A) (A) (A) (A) (A) (A) (A) (A) (A) (A)
                 (A) (A) (A) (A) (A) (A) (A) (A) (A) (A) (A) (A)
                 (A) (A) (A) (A) (A) (A) (A) (A) (A) (A) (A) (A)
                 (A) (A) (A) (A) (A) (A) (A) (A) (A) (A) (A) (A)
                 (A) (A) (A) (A) (A) (A) (A) (A) (A) (A) (A) (A)
                 (A) (A) (A) (A) (A) (A) (A) (A) (A) (A) (A) (A)
                 (A) (A) (A) (A) (A) (A) (A) (A) (A) (A) (A) (A)
                 (A) (A) (A) (A) (A) (A) (A) (A) (A) (A) (A) (A)
                 (A) (A) (A) (A) (A) (A) (A) (A) (A) (A) (A) (A)
                 (A) (A) (A) (A) (A) (A) (A) (A) (A) (A) (A) (A)
                 (A) (A) (A) (A) (A) (A) (A) (A) (A) (A) (A) (A)
                 (A) (A) (A) (A) (A) (A) (A) (A) (A) (A) (A) (A)
                 (A) (A) (A) (A) (A) (A) (A) (A) (A) (A) (A) (A)
                 (A) (A) (A) (A) (A) (A) (A) (A) (A) (A) (A) (A)
                 (A) (A) (A) (A) (A) (A) (A) (A) (A) (A) (A) (A)
                 (A) (A) (A) (A) (A) (A) (A) (A) (A) (A) (A) (A)
                 (A) (A) (A) (A) (A) (A) (A) (A) (A) (A) (A) (A)
                 (A) (A) (A) (A) (A) (A) (A) (A) (A) (A) (A) (A)
                 (A) (A) (A) (A) (A) (A) (A) (A) (A) (A) (A) (A)
                 (A) (A) (A) (A) (A) (A) (A) (A) (A) (A) (A) (A)
                 (A) (A) (A) (A) (A) (A) (A) (A) (A) (A) (A) (A)
                 (A) (A) (A) (A) (A) (A) (A) (A) (A) (A) (A) (A)
                 (A) (A) (A) (A) (A) (A) (A) (A) (A) (A) (A) (A)
                 (A) (A) (A) (A) (A) (A) (A) (A) (A) (A) (A) (A)
                 (A) (A) (A) (A) (A) (A) (A) (A) (A) (A) (A) (A)
                 (A) (A) (A) (A) (A) (A) (A) (A) (A) (A) (A) (A)
                 (A) (A) (A) (A) (A) (A) (A) (A) (A) (A) (A) (A)
                 (A) (A) (A) (A) (A) (A) (A) (A) (A) (A) (A) (A)
                 (A) (A) (A) (A) (A) (A) (A) (A) (A) (A) (A) (A)
                 (A) (A) (A) (A) (A) (A) (A) (A) (A) (A) (A) (A)
                 (A) (A) (A) (A) (A) (A) (A) (A) (A) (A) (A) (A)
                 (A) (A) (A) (A) (A) (A) (A) (A) (A) (A) (A) (A)
                 (A) (A) (A) (A) (A) (A) (A) (A)
    80 initial guesses have been made.
 Convergence on wavefunction:    0.001000000000000
 Davidson Disk Diagonalization:  ConvIn= 1.00D-03 SkipCon=T Conv= 1.00D-03.
 Max sub-space:  2000 roots to seek:    80 dimension of matrix:        39200
 Iteration     1 Dimension    80 NMult     0 NNew     80
 CISAX will form    80 AO SS matrices at one time.
 NMat=    80 NSing=    80 JSym2X= 0.
 FoFJK:  IHMeth= 1 ICntrl=       0 DoSepK=T KAlg= 0 I1Cent=           0 FoldK=F
 IRaf=         1 NMat=     160 IRICut=       1 DoRegI=T DoRafI=F ISym2E= 0 IDoP0=3 IntGTp=3.
 New state      1 was old state      3
 New state      2 was old state      1
 New state      3 was old state      2
 New state      4 was old state      7
 New state      5 was old state      9
 New state      6 was old state      4
 New state      7 was old state      5
 New state      8 was old state     10
 New state      9 was old state      6
 New state     10 was old state     14
 New state     12 was old state      8
 New state     13 was old state     22
 New state     14 was old state     18
 New state     15 was old state     16
 New state     16 was old state     15
 New state     17 was old state     13
 New state     18 was old state     21
 New state     19 was old state     28
 Excitation Energies [eV] at current iteration:
 Root      1 :     3.174612545178846
 Root      2 :     4.075650707161297
 Root      3 :     4.798452090154004
 Root      4 :     4.967942337615557
 Root      5 :     5.252428323689941
 Root      6 :     5.339942867967689
 Root      7 :     5.644138825552798
 Root      8 :     6.031914861166138
 Root      9 :     6.095525434913482
 Root     10 :     6.144645978332909
 Root     11 :     6.311628937801642
 Root     12 :     6.644080040211434
 Root     13 :     6.860461816525313
 Root     14 :     6.895567260476984
 Root     15 :     6.934119187215871
 Root     16 :     6.970567257770639
 Root     17 :     7.103544741489706
 Root     18 :     7.251335429360291
 Root     19 :     7.257968714746062
 Root     20 :     7.384937410410745
 Root     21 :     7.394329851624077
 Root     22 :     7.402915328724829
 Root     23 :     7.528684810366912
 Root     24 :     7.664303158092474
 Root     25 :     7.672257527754649
 Root     26 :     7.699828118548216
 Root     27 :     7.795649018914994
 Root     28 :     7.833114885964958
 Root     29 :     7.840143962455024
 Root     30 :     7.870013623222076
 Root     31 :     7.997714914120519
 Root     32 :     8.012288874315512
 Root     33 :     8.096167032727449
 Root     34 :     8.193206132858824
 Root     35 :     8.252827670930303
 Root     36 :     8.267880440874144
 Root     37 :     8.293666009044779
 Root     38 :     8.409962188790530
 Root     39 :     8.432586634517685
 Root     40 :     8.435150883037959
 Root     41 :     8.445506812735173
 Root     42 :     8.495907856657885
 Root     43 :     8.539127562676169
 Root     44 :     8.611703341956343
 Root     45 :     8.649789502673714
 Root     46 :     8.702172359367939
 Root     47 :     8.767861827553650
 Root     48 :     8.810400179703954
 Root     49 :     8.867988626941631
 Root     50 :     8.925381461408941
 Root     51 :     8.930296730727294
 Root     52 :     8.932893580718973
 Root     53 :     8.966626007469806
 Root     54 :     8.968122788517135
 Root     55 :     9.028238310427675
 Root     56 :     9.099504007735426
 Root     57 :     9.138875358957245
 Root     58 :     9.153238118573656
 Root     59 :     9.189022187806259
 Root     60 :     9.210407498712170
 Root     61 :     9.219219020429243
 Root     62 :     9.278362321412290
 Root     63 :     9.304057267237427
 Root     64 :     9.314160173985821
 Root     65 :     9.336469420675035
 Root     66 :     9.352317134269352
 Root     67 :     9.496669076974545
 Root     68 :     9.554267607309098
 Root     69 :     9.563078136629739
 Root     70 :     9.640415694056466
 Root     71 :     9.676489602519915
 Root     72 :     9.728816867239576
 Root     73 :     9.752004490481649
 Root     74 :     9.788852117189583
 Root     75 :     9.825500746214647
 Root     76 :     9.903609210864770
 Root     77 :     9.906881193101066
 Root     78 :     9.960930897133240
 Root     79 :     9.998674089046242
 Root     80 :    10.103878452387200
 Iteration     2 Dimension   120 NMult    80 NNew     40
 CISAX will form    40 AO SS matrices at one time.
 NMat=    40 NSing=    40 JSym2X= 0.
 Root      1 not converged, maximum delta is    0.024081068471787
 Root      2 not converged, maximum delta is    0.049004278997824
 Root      3 not converged, maximum delta is    0.054107790161985
 Root      4 not converged, maximum delta is    0.087537927164796
 Root      5 not converged, maximum delta is    0.275637668133861
 Root      6 not converged, maximum delta is    0.265220984537917
 Root      7 not converged, maximum delta is    0.137546417744539
 New state      8 was old state      9
 Root      8 not converged, maximum delta is    0.119234266015966
 New state      9 was old state      8
 Root      9 not converged, maximum delta is    0.044347237409161
 New state     10 was old state     11
 Root     10 not converged, maximum delta is    0.260332121715181
 New state     11 was old state     10
 Root     11 not converged, maximum delta is    0.098660340126793
 Root     12 not converged, maximum delta is    0.286522204252505
 New state     13 was old state     14
 Root     13 not converged, maximum delta is    0.300621393315726
 New state     14 was old state     16
 Root     14 not converged, maximum delta is    0.240628441178654
 New state     15 was old state     13
 Root     15 not converged, maximum delta is    0.093884418318368
 New state     16 was old state     17
 Root     16 not converged, maximum delta is    0.321420548772319
 New state     17 was old state     15
 Root     17 not converged, maximum delta is    0.057870655208540
 New state     18 was old state     19
 Root     18 not converged, maximum delta is    0.279134148962254
 New state     19 was old state     18
 Root     19 not converged, maximum delta is    0.054990662170404
 Root     20 not converged, maximum delta is    0.288192341654799
 Excitation Energies [eV] at current iteration:
 Root      1 :     3.029429766696721   Change is   -0.145182778482125
 Root      2 :     3.608896880811284   Change is   -0.466753826350014
 Root      3 :     4.614851916856241   Change is   -0.183600173297763
 Root      4 :     4.882418622837293   Change is   -0.085523714778263
 Root      5 :     4.957352320467778   Change is   -0.295076003222163
 Root      6 :     5.118450289126029   Change is   -0.221492578841660
 Root      7 :     5.344653423584570   Change is   -0.299485401968228
 Root      8 :     5.738678920636869   Change is   -0.356846514276613
 Root      9 :     5.953156526558385   Change is   -0.078758334607752
 Root     10 :     6.027426544959930   Change is   -0.284202392841712
 Root     11 :     6.073092720119891   Change is   -0.071553258213019
 Root     12 :     6.210948828914598   Change is   -0.433131211296837
 Root     13 :     6.403320280260521   Change is   -0.492246980216462
 Root     14 :     6.505418485657196   Change is   -0.465148772113443
 Root     15 :     6.628438948748634   Change is   -0.232022867776679
 Root     16 :     6.827152417889081   Change is   -0.276392323600625
 Root     17 :     6.835378557546867   Change is   -0.098740629669004
 Root     18 :     7.108056991551310   Change is   -0.149911723194753
 Root     19 :     7.146196420976953   Change is   -0.105139008383339
 Root     20 :     7.203161326161042   Change is   -0.181776084249703
 Iteration     3 Dimension   160 NMult   120 NNew     40
 CISAX will form    40 AO SS matrices at one time.
 NMat=    40 NSing=    40 JSym2X= 0.
 Root      1 not converged, maximum delta is    0.003089238382513
 Root      2 not converged, maximum delta is    0.003334401387867
 Root      3 not converged, maximum delta is    0.004107891803912
 Root      4 not converged, maximum delta is    0.022424349212170
 Root      5 not converged, maximum delta is    0.023709427651585
 Root      6 not converged, maximum delta is    0.012404811680998
 Root      7 not converged, maximum delta is    0.009547505802408
 Root      8 not converged, maximum delta is    0.013434766693015
 Root      9 not converged, maximum delta is    0.015740577959733
 Root     10 not converged, maximum delta is    0.031669377008517
 Root     11 not converged, maximum delta is    0.019759474689510
 Root     12 not converged, maximum delta is    0.032071961977446
 Root     13 not converged, maximum delta is    0.030864984235776
 Root     14 not converged, maximum delta is    0.035225312465048
 Root     15 not converged, maximum delta is    0.011174239805658
 Root     16 not converged, maximum delta is    0.071127566646169
 Root     17 not converged, maximum delta is    0.061080794728088
 New state     18 was old state     20
 Root     18 not converged, maximum delta is    0.281663445913782
 New state     19 was old state     18
 Root     19 not converged, maximum delta is    0.137567374655388
 New state     20 was old state     19
 Root     20 not converged, maximum delta is    0.074242014686263
 Excitation Energies [eV] at current iteration:
 Root      1 :     3.026887401218006   Change is   -0.002542365478715
 Root      2 :     3.590675665063343   Change is   -0.018221215747941
 Root      3 :     4.608943482613287   Change is   -0.005908434242953
 Root      4 :     4.878625137352241   Change is   -0.003793485485052
 Root      5 :     4.941225428255908   Change is   -0.016126892211870
 Root      6 :     5.107677343306182   Change is   -0.010772945819848
 Root      7 :     5.333315003669255   Change is   -0.011338419915316
 Root      8 :     5.718984940547710   Change is   -0.019693980089159
 Root      9 :     5.948415280439940   Change is   -0.004741246118446
 Root     10 :     6.011493755492489   Change is   -0.015932789467442
 Root     11 :     6.067021494516490   Change is   -0.006071225603400
 Root     12 :     6.177497380425433   Change is   -0.033451448489164
 Root     13 :     6.384042606507252   Change is   -0.019277673753270
 Root     14 :     6.472278203873229   Change is   -0.033140281783967
 Root     15 :     6.619917395039073   Change is   -0.008521553709562
 Root     16 :     6.818974197033351   Change is   -0.008178220855730
 Root     17 :     6.831991055172343   Change is   -0.003387502374525
 Root     18 :     6.920547192058354   Change is   -0.282614134102688
 Root     19 :     7.052282981224829   Change is   -0.055774010326481
 Root     20 :     7.140725605913205   Change is   -0.005470815063748
 Iteration     4 Dimension   200 NMult   160 NNew     40
 CISAX will form    40 AO SS matrices at one time.
 NMat=    40 NSing=    40 JSym2X= 0.
 Root      1 has converged.
 Root      2 not converged, maximum delta is    0.001174862503067
 Root      3 not converged, maximum delta is    0.001001737256753
 Root      4 not converged, maximum delta is    0.001492935608855
 Root      5 not converged, maximum delta is    0.001668605990257
 Root      6 has converged.
 Root      7 has converged.
 Root      8 not converged, maximum delta is    0.001383987307605
 Root      9 not converged, maximum delta is    0.003799104652072
 Root     10 not converged, maximum delta is    0.002711932990010
 Root     11 not converged, maximum delta is    0.005911605976555
 Root     12 not converged, maximum delta is    0.003700388128714
 Root     13 not converged, maximum delta is    0.002118151795104
 Root     14 not converged, maximum delta is    0.007289783561050
 Root     15 not converged, maximum delta is    0.002368231665355
 Root     16 not converged, maximum delta is    0.026354302071012
 Root     17 not converged, maximum delta is    0.012185179074411
 Root     18 not converged, maximum delta is    0.040826805149227
 Root     19 not converged, maximum delta is    0.086900852553479
 Root     20 not converged, maximum delta is    0.520485291594432
 Excitation Energies [eV] at current iteration:
 Root      1 :     3.026830016303447   Change is   -0.000057384914559
 Root      2 :     3.589176342541772   Change is   -0.001499322521571
 Root      3 :     4.608635264502934   Change is   -0.000308218110353
 Root      4 :     4.878453219579160   Change is   -0.000171917773081
 Root      5 :     4.940268048250979   Change is   -0.000957380004929
 Root      6 :     5.106912168145575   Change is   -0.000765175160607
 Root      7 :     5.332533584824355   Change is   -0.000781418844900
 Root      8 :     5.718112200349586   Change is   -0.000872740198123
 Root      9 :     5.948050023246569   Change is   -0.000365257193371
 Root     10 :     6.010341226406616   Change is   -0.001152529085873
 Root     11 :     6.066356783167458   Change is   -0.000664711349033
 Root     12 :     6.175277502769362   Change is   -0.002219877656071
 Root     13 :     6.382671433625673   Change is   -0.001371172881579
 Root     14 :     6.468573443329401   Change is   -0.003704760543829
 Root     15 :     6.619359773105938   Change is   -0.000557621933135
 Root     16 :     6.817590637549348   Change is   -0.001383559484004
 Root     17 :     6.831742185106989   Change is   -0.000248870065354
 Root     18 :     6.893432080386178   Change is   -0.027115111672175
 Root     19 :     7.036278377835651   Change is   -0.016004603389178
 Root     20 :     7.048660333123147   Change is   -0.092065272790058
 Iteration     5 Dimension   234 NMult   200 NNew     34
 CISAX will form    34 AO SS matrices at one time.
 NMat=    34 NSing=    34 JSym2X= 0.
 Root      1 has converged.
 Root      2 has converged.
 Root      3 has converged.
 Root      4 has converged.
 Root      5 has converged.
 Root      6 has converged.
 Root      7 has converged.
 Root      8 has converged.
 Root      9 has converged.
 Root     10 has converged.
 Root     11 not converged, maximum delta is    0.001241716029940
 Root     12 has converged.
 Root     13 has converged.
 Root     14 has converged.
 Root     15 has converged.
 Root     16 not converged, maximum delta is    0.002272784191119
 Root     17 has converged.
 Root     18 not converged, maximum delta is    0.005988537972598
 New state     19 was old state     20
 Root     19 not converged, maximum delta is    0.178647468990901
 New state     20 was old state     19
 Root     20 not converged, maximum delta is    0.160561939931122
 Excitation Energies [eV] at current iteration:
 Root      1 :     3.026829604018347   Change is   -0.000000412285100
 Root      2 :     3.589130129189022   Change is   -0.000046213352750
 Root      3 :     4.608626146602222   Change is   -0.000009117900712
 Root      4 :     4.878445320647894   Change is   -0.000007898931266
 Root      5 :     4.940234203342402   Change is   -0.000033844908578
 Root      6 :     5.106894896427727   Change is   -0.000017271717848
 Root      7 :     5.332512344693073   Change is   -0.000021240131282
 Root      8 :     5.718076010471909   Change is   -0.000036189877677
 Root      9 :     5.948029041835381   Change is   -0.000020981411188
 Root     10 :     6.010291129717181   Change is   -0.000050096689435
 Root     11 :     6.066302556468379   Change is   -0.000054226699078
 Root     12 :     6.175179869402475   Change is   -0.000097633366887
 Root     13 :     6.382586253514665   Change is   -0.000085180111009
 Root     14 :     6.468378503109687   Change is   -0.000194940219714
 Root     15 :     6.619315327548189   Change is   -0.000044445557749
 Root     16 :     6.817499510919363   Change is   -0.000091126629985
 Root     17 :     6.831718605891552   Change is   -0.000023579215436
 Root     18 :     6.891904999057537   Change is   -0.001527081328640
 Root     19 :     7.018728600185084   Change is   -0.029931732938063
 Root     20 :     7.035087738939316   Change is   -0.001190638896335
 Iteration     6 Dimension   244 NMult   234 NNew     10
 CISAX will form    10 AO SS matrices at one time.
 NMat=    10 NSing=    10 JSym2X= 0.
 Root      1 has converged.
 Root      2 has converged.
 Root      3 has converged.
 Root      4 has converged.
 Root      5 has converged.
 Root      6 has converged.
 Root      7 has converged.
 Root      8 has converged.
 Root      9 has converged.
 Root     10 has converged.
 Root     11 has converged.
 Root     12 has converged.
 Root     13 has converged.
 Root     14 has converged.
 Root     15 has converged.
 Root     16 has converged.
 Root     17 has converged.
 Root     18 has converged.
 Root     19 not converged, maximum delta is    0.006556951740175
 Root     20 not converged, maximum delta is    0.007101889606257
 Excitation Energies [eV] at current iteration:
 Root      1 :     3.026829574908132   Change is   -0.000000029110215
 Root      2 :     3.589130044668695   Change is   -0.000000084520327
 Root      3 :     4.608626134611010   Change is   -0.000000011991213
 Root      4 :     4.878445308045022   Change is   -0.000000012602873
 Root      5 :     4.940234162630793   Change is   -0.000000040711609
 Root      6 :     5.106894482170828   Change is   -0.000000414256899
 Root      7 :     5.332511990035366   Change is   -0.000000354657707
 Root      8 :     5.718075532893560   Change is   -0.000000477578349
 Root      9 :     5.948028934379487   Change is   -0.000000107455894
 Root     10 :     6.010290935270778   Change is   -0.000000194446403
 Root     11 :     6.066299696780916   Change is   -0.000002859687463
 Root     12 :     6.175179688155104   Change is   -0.000000181247371
 Root     13 :     6.382585586019848   Change is   -0.000000667494816
 Root     14 :     6.468376084195281   Change is   -0.000002418914406
 Root     15 :     6.619315248058289   Change is   -0.000000079489900
 Root     16 :     6.817494921995173   Change is   -0.000004588924190
 Root     17 :     6.831716733850110   Change is   -0.000001872041443
 Root     18 :     6.891819266275263   Change is   -0.000085732782275
 Root     19 :     7.017414869742861   Change is   -0.001313730442223
 Root     20 :     7.034727852017031   Change is   -0.000359886922285
 Iteration     7 Dimension   248 NMult   244 NNew      4
 CISAX will form     4 AO SS matrices at one time.
 NMat=     4 NSing=     4 JSym2X= 0.
 Root      1 has converged.
 Root      2 has converged.
 Root      3 has converged.
 Root      4 has converged.
 Root      5 has converged.
 Root      6 has converged.
 Root      7 has converged.
 Root      8 has converged.
 Root      9 has converged.
 Root     10 has converged.
 Root     11 has converged.
 Root     12 has converged.
 Root     13 has converged.
 Root     14 has converged.
 Root     15 has converged.
 Root     16 has converged.
 Root     17 has converged.
 Root     18 has converged.
 Root     19 has converged.
 Root     20 not converged, maximum delta is    0.002335362994751
 Excitation Energies [eV] at current iteration:
 Root      1 :     3.026829558098613   Change is   -0.000000016809518
 Root      2 :     3.589130036429047   Change is   -0.000000008239648
 Root      3 :     4.608626130323296   Change is   -0.000000004287713
 Root      4 :     4.878445304738181   Change is   -0.000000003306840
 Root      5 :     4.940234139330959   Change is   -0.000000023299834
 Root      6 :     5.106894399617016   Change is   -0.000000082553811
 Root      7 :     5.332511907481939   Change is   -0.000000082553427
 Root      8 :     5.718075519663715   Change is   -0.000000013229845
 Root      9 :     5.948028920243442   Change is   -0.000000014136044
 Root     10 :     6.010290915287481   Change is   -0.000000019983297
 Root     11 :     6.066299694729597   Change is   -0.000000002051319
 Root     12 :     6.175179657813785   Change is   -0.000000030341319
 Root     13 :     6.382585568686074   Change is   -0.000000017333775
 Root     14 :     6.468375844097848   Change is   -0.000000240097433
 Root     15 :     6.619315195416836   Change is   -0.000000052641452
 Root     16 :     6.817494871082233   Change is   -0.000000050912940
 Root     17 :     6.831716463603590   Change is   -0.000000270246519
 Root     18 :     6.891818850790217   Change is   -0.000000415485046
 Root     19 :     7.017326654993027   Change is   -0.000088214749835
 Root     20 :     7.034671468023878   Change is   -0.000056383993153
 Iteration     8 Dimension   250 NMult   248 NNew      2
 CISAX will form     2 AO SS matrices at one time.
 NMat=     2 NSing=     2 JSym2X= 0.
 Root      1 has converged.
 Root      2 has converged.
 Root      3 has converged.
 Root      4 has converged.
 Root      5 has converged.
 Root      6 has converged.
 Root      7 has converged.
 Root      8 has converged.
 Root      9 has converged.
 Root     10 has converged.
 Root     11 has converged.
 Root     12 has converged.
 Root     13 has converged.
 Root     14 has converged.
 Root     15 has converged.
 Root     16 has converged.
 Root     17 has converged.
 Root     18 has converged.
 Root     19 has converged.
 Root     20 has converged.
 Excitation Energies [eV] at current iteration:
 Root      1 :     3.026829555774267   Change is   -0.000000002324347
 Root      2 :     3.589130034402908   Change is   -0.000000002026139
 Root      3 :     4.608626129858890   Change is   -0.000000000464406
 Root      4 :     4.878445304680685   Change is   -0.000000000057496
 Root      5 :     4.940234137176608   Change is   -0.000000002154350
 Root      6 :     5.106894375305995   Change is   -0.000000024311022
 Root      7 :     5.332511902126090   Change is   -0.000000005355848
 Root      8 :     5.718075518896701   Change is   -0.000000000767015
 Root      9 :     5.948028910239314   Change is   -0.000000010004128
 Root     10 :     6.010290912375876   Change is   -0.000000002911605
 Root     11 :     6.066299694040299   Change is   -0.000000000689298
 Root     12 :     6.175179655666108   Change is   -0.000000002147677
 Root     13 :     6.382585560285396   Change is   -0.000000008400677
 Root     14 :     6.468375835512605   Change is   -0.000000008585243
 Root     15 :     6.619315185693053   Change is   -0.000000009723783
 Root     16 :     6.817494870224959   Change is   -0.000000000857274
 Root     17 :     6.831716437636442   Change is   -0.000000025967149
 Root     18 :     6.891818797683278   Change is   -0.000000053106938
 Root     19 :     7.017326299106900   Change is   -0.000000355886126
 Root     20 :     7.034665500101272   Change is   -0.000005967922606
 Convergence achieved on expansion vectors.
 ***********************************************************************
 Excited states from <AA,BB:AA,BB> singles matrix:
 ***********************************************************************
 
 1PDM for each excited state written to RWF  633
 Ground to excited state transition densities written to RWF  633
 Ground to excited state transition electric dipole moments (Au):
       state          X           Y           Z        Dip. S.      Osc.
         1         0.1178      0.0084     -0.0084      0.0140      0.0010
         2         3.4543      0.2629      0.0028     12.0014      1.0553
         3        -0.2400      0.1191      0.0012      0.0718      0.0081
         4        -0.0614      0.2105      0.0043      0.0481      0.0057
         5         0.6113     -1.0642     -0.0060      1.5062      0.1823
         6         0.5949      0.6835      0.0119      0.8211      0.1027
         7        -0.2976      0.1753      0.0151      0.1195      0.0156
         8         0.6740      0.9093     -0.0524      1.2839      0.1799
         9         0.0088      0.0514      0.0097      0.0028      0.0004
        10         0.6231     -1.0258     -0.0032      1.4404      0.2121
        11         0.0166     -0.1625     -0.0242      0.0272      0.0040
        12        -0.5627      1.2270      0.0107      1.8222      0.2757
        13         0.2685      0.3784      0.0114      0.2155      0.0337
        14         0.2111      0.5715      0.0039      0.3712      0.0588
        15        -0.0907      0.0171      0.0308      0.0095      0.0015
        16         0.6961      0.2858     -0.0221      0.5667      0.0947
        17         0.1429      0.0221      0.1262      0.0368      0.0062
        18         1.7918      0.2944      0.0129      3.2973      0.5567
        19        -0.0059      1.5360     -0.0084      2.3593      0.4056
        20         0.0463     -0.2708     -0.1089      0.0874      0.0151
 Ground to excited state transition velocity dipole moments (Au):
       state          X           Y           Z        Dip. S.      Osc.
         1        -0.0128     -0.0007     -0.0019      0.0002      0.0010
         2        -0.4458     -0.0262     -0.0006      0.1994      1.0078
         3         0.0434     -0.0233     -0.0002      0.0024      0.0096
         4         0.0096     -0.0383     -0.0007      0.0016      0.0058
         5        -0.1044      0.1923      0.0008      0.0479      0.1758
         6        -0.1149     -0.1272     -0.0025      0.0294      0.1044
         7         0.0552     -0.0300     -0.0035      0.0040      0.0135
         8        -0.1390     -0.1958      0.0115      0.0578      0.1834
         9        -0.0018     -0.0112     -0.0069      0.0002      0.0005
        10        -0.1410      0.2241      0.0010      0.0701      0.2117
        11        -0.0049      0.0356      0.0005      0.0013      0.0039
        12         0.1301     -0.2697     -0.0024      0.0897      0.2634
        13        -0.0527     -0.0867     -0.0035      0.0103      0.0293
        14        -0.0511     -0.1336     -0.0008      0.0205      0.0574
        15         0.0215     -0.0040     -0.0106      0.0006      0.0016
        16        -0.1771     -0.0758      0.0054      0.0371      0.0988
        17        -0.0358     -0.0057     -0.0262      0.0020      0.0053
        18        -0.4534     -0.0745     -0.0035      0.2112      0.5558
        19         0.0022     -0.3925      0.0035      0.1541      0.3984
        20        -0.0118      0.0693      0.0359      0.0062      0.0161
 Ground to excited state transition magnetic dipole moments (Au):
       state          X           Y           Z
         1         0.8974      0.4503      0.0149
         2        -0.0219     -0.0241      0.2174
         3         0.0003      0.0041     -0.4531
         4         0.0035      0.0003     -0.3650
         5         0.0022     -0.0162      0.8971
         6        -0.0027     -0.0006     -1.3996
         7        -0.0017     -0.0159     -1.0011
         8        -0.0106      0.0934      1.8074
         9         0.1452     -0.0055     -0.0164
        10         0.0019     -0.0203      0.9451
        11         0.0841      0.0367      0.0473
        12         0.0114      0.0005     -0.0439
        13         0.0258     -0.0067      0.1467
        14        -0.0062      0.0011     -0.4960
        15         0.5760      0.2979     -0.0239
        16        -0.0123      0.0058     -0.3807
        17         0.0658      0.3890     -0.1459
        18         0.0108     -0.0252     -2.3870
        19        -0.0409      0.0101     -1.8326
        20        -0.1696     -0.0648      0.3039
 Ground to excited state transition velocity quadrupole moments (Au):
       state          XX          YY          ZZ          XY          XZ          YZ
         1         0.0425     -0.0138      0.0011      0.0005     -0.0011      0.0716
         2         1.0120     -0.5614     -0.0096     -0.0347     -0.0001     -0.0165
         3         0.4827     -0.0804     -0.0050      0.0346      0.0002     -0.0007
         4        -0.2549     -0.0441      0.0035     -0.2334     -0.0010     -0.0004
         5         1.1907     -0.0706      0.0231      0.7582      0.0070     -0.0031
         6         0.4759      0.0803     -0.0012     -0.7519     -0.0023     -0.0005
         7         2.2038      0.2188      0.0206     -0.6790      0.0050      0.0031
         8         1.5473      0.0295      0.0088      1.4245     -0.0784     -0.0050
         9         0.1045      0.0125      0.0029     -0.0244     -0.0340      0.0441
        10        -2.2856     -0.2728     -0.0093      1.6399      0.0314     -0.0048
        11        -0.4207     -0.0187     -0.0044      0.1989     -0.0264      0.0069
        12         1.7976     -0.1335     -0.0400     -1.8946     -0.0121     -0.0033
        13         0.7245     -0.1819     -0.0330     -0.5147      0.0174     -0.0036
        14        -0.6409      0.4560      0.0041     -0.9194     -0.0102      0.0035
        15        -0.2087      0.0371     -0.0028     -0.0318      0.0073      0.0831
        16         2.3960      0.2666      0.0237      0.3105     -0.0206      0.0029
        17         0.3823      0.0504      0.0040     -0.0580     -0.3181      0.0407
        18         3.4404      0.9282      0.0255     -1.3561      0.0413      0.0046
        19        -4.7856      1.4378     -0.0375     -1.5684     -0.0253      0.0019
        20         0.9034     -0.2654      0.0042      0.2732      0.0021     -0.0499
 <0|del|b> * <b|rxdel|0> + <0|del|b> * <b|delr+rdel|0>
 Rotatory Strengths (R) in cgs (10**-40 erg-esu-cm/Gauss)
       state          XX          YY          ZZ    R(velocity)    E-M Angle
         1        -1.1009    -39.3636    -34.4753    -24.9800      155.41
         2         1.4110     45.4811      8.0689     18.3203       84.01
         3         0.0199      0.2123     -0.1173      0.0383       90.00
         4         0.6810      0.2293      0.1256      0.3453       88.95
         5        -6.1033      0.4158     -4.5321     -3.4065       90.77
         6         9.6653      3.7279      1.1602      4.8512       89.08
         7        11.6752      2.1589      0.1218      4.6520       86.48
         8         6.1316     11.0826     -3.6236      4.5302       89.47
         9        -0.0587     -0.6548      0.4139     -0.0999       90.00
        10       -14.3683     -0.4713      2.4370     -4.1342       90.89
        11         3.7684     -0.8403     -0.0208      0.9691       75.70
        12         1.8699     -5.1752      7.8432      1.5126       83.85
        13         5.1139     -5.2916     -3.7357     -1.3045       94.92
        14        -0.5409     -0.3079      2.5442      0.5651       89.54
        15        -0.8245     20.5178     13.6652     11.1195       43.44
        16        -3.3557     -2.9500      5.3792     -0.3088       90.26
        17         1.8216     -2.1253     -1.8356     -0.7131       92.31
        18        25.3361     -4.7226     -5.6007      5.0043       89.72
        19       -35.2266     -1.3773      8.0697     -9.5114       90.83
        20        21.9861      5.0483     -4.0178      7.6722       72.47
 1/2[<0|r|b>*<b|rxdel|0> + (<0|rxdel|b>*<b|r|0>)*]
[...]
     1  N   -0.000643  -0.002295   0.031629   0.000287   0.000008  -0.000118
     2  N    0.007986   0.010505  -0.019619  -0.001424  -0.000190  -0.000059
     3  C    0.000200  -0.000297   0.003061   0.000033  -0.000001  -0.000006
     4  C   -0.000249  -0.000010   0.000897   0.000001   0.000000  -0.000000
     5  C    0.000023  -0.000002  -0.000365   0.000000  -0.000000   0.000000
     6  C   -0.000017   0.000000  -0.000072  -0.000000   0.000000   0.000000
     7  C   -0.000117  -0.000002   0.000083   0.000000   0.000000  -0.000000
     8  C   -0.000001   0.000000  -0.000000  -0.000000   0.000000   0.000000
     9  C    0.000037  -0.000000   0.000000   0.000000  -0.000000  -0.000000
    10  H    0.002591  -0.000027   0.000084   0.000012  -0.000007   0.000000
    11  C    0.000002  -0.000000   0.000000   0.000000  -0.000000  -0.000000
    12  H   -0.000000   0.000000  -0.000000  -0.000000   0.000000   0.000000
    13  H   -0.000014   0.000000  -0.000000  -0.000000   0.000000   0.000000
    14  H    0.000000  -0.000000   0.000000   0.000000  -0.000000  -0.000000
    15  C   -0.056174   0.031163  -0.073175  -0.070897   0.009315   0.008023
    16  C    0.412623  -0.058543   0.008877  -0.047068  -0.036687  -0.000702
    17  C    0.015730   0.423865   0.438164  -0.020681  -0.001545  -0.034495
    18  C   -0.039638  -0.035841  -0.002172   0.520804   0.423635   0.006558
    19  H    0.541097  -0.003026   0.000182   0.009491  -0.008363   0.000048
    20  C   -0.003026   4.939073  -0.049025   0.473469   0.007740   0.426049
    21  H    0.000182  -0.049025   0.529467   0.009681   0.000026  -0.007701
    22  C    0.009491   0.473469   0.009681   5.117859  -0.045360  -0.049063
    23  H   -0.008363   0.007740   0.000026  -0.045360   0.546165  -0.000300
    24  H    0.000048   0.426049  -0.007701  -0.049063  -0.000300   0.542663
    25  N   -0.000000   0.000000  -0.000004  -0.000000   0.000000   0.000000
    26  C    0.000000  -0.000000  -0.000000   0.000000   0.000000   0.000000
    27  H    0.000000   0.000000   0.000000  -0.000000  -0.000000  -0.000000
    28  H    0.000000  -0.000000   0.000000   0.000000  -0.000000  -0.000000
    29  H   -0.000000   0.000000  -0.000001  -0.000000   0.000000   0.000000
    30  C    0.000001   0.000002   0.000315  -0.000000  -0.000000  -0.000000
    31  H    0.000000  -0.000000  -0.000009   0.000000   0.000000   0.000000
    32  H    0.000004  -0.000037   0.002781   0.000004  -0.000000  -0.000007
    33  H    0.000000  -0.000000  -0.000008   0.000000  -0.000000   0.000000
    34  C   -0.000109  -0.060600  -0.000044   0.346521  -0.008859  -0.004804
    35  H    0.000015  -0.005290   0.000002  -0.036108   0.000168   0.000786
    36  H    0.000016  -0.006315  -0.000003  -0.037509   0.000108   0.001040
    37  H   -0.000024   0.006921   0.000014  -0.037478   0.002476   0.000025
              25         26         27         28         29         30
     1  N    0.002377  -0.000058   0.000004   0.000003  -0.000002   0.002580
     2  N   -0.000003   0.000004  -0.000000  -0.000000   0.000000  -0.000238
     3  C   -0.049494   0.008591  -0.000320  -0.000306   0.001417  -0.088541
     4  C   -0.060747   0.007035   0.000586   0.000581  -0.001060   0.028838
     5  C    0.431820  -0.061517   0.003667   0.003679  -0.015466   0.318646
     6  C    0.402617  -0.066528  -0.005862  -0.005888   0.007167  -0.004732
     7  C    0.007001  -0.000223   0.000004   0.000002  -0.000004   0.000693
     8  C   -0.054765  -0.005145   0.001441   0.001459   0.000227  -0.000416
     9  C   -0.000003   0.000039  -0.000029  -0.000028   0.000001  -0.000006
    10  H   -0.000104   0.000015   0.000000   0.000000  -0.000001   0.000056
    11  C    0.004466  -0.000121   0.000057   0.000057   0.000015   0.000013
    12  H   -0.005482   0.003571  -0.000408  -0.000406  -0.000000  -0.000017
    13  H    0.000004  -0.000000   0.000000   0.000000   0.000000  -0.000000
    14  H   -0.000162  -0.000032   0.000002   0.000002  -0.000001   0.000000
    15  C    0.000001  -0.000000   0.000000   0.000000  -0.000000   0.000010
    16  C   -0.000000   0.000000   0.000000  -0.000000  -0.000000   0.000000
    17  C   -0.000000  -0.000000   0.000000   0.000000   0.000000  -0.000107
    18  C    0.000000  -0.000000   0.000000  -0.000000   0.000000  -0.000000
    19  H   -0.000000   0.000000   0.000000   0.000000  -0.000000   0.000001
    20  C    0.000000  -0.000000   0.000000  -0.000000   0.000000   0.000002
    21  H   -0.000004  -0.000000   0.000000   0.000000  -0.000001   0.000315
    22  C   -0.000000   0.000000  -0.000000   0.000000  -0.000000  -0.000000
    23  H    0.000000   0.000000  -0.000000  -0.000000   0.000000  -0.000000
    24  H    0.000000   0.000000  -0.000000  -0.000000   0.000000  -0.000000
    25  N    6.641912   0.289911  -0.034721  -0.034710  -0.016274  -0.051543
    26  C    0.289911   4.779344   0.409830   0.409839   0.406952  -0.005937
    27  H   -0.034721   0.409830   0.534596  -0.035224  -0.021965   0.000013
    28  H   -0.034710   0.409839  -0.035224   0.534584  -0.021963  -0.000003
    29  H   -0.016274   0.406952  -0.021965  -0.021963   0.511512   0.003244
    30  C   -0.051543  -0.005937   0.000013  -0.000003   0.003244   4.847611
    31  H   -0.002467  -0.000681   0.000096  -0.000056  -0.000969   0.409836
    32  H    0.003902   0.000477  -0.000011  -0.000014   0.000207   0.409877
    33  H   -0.002470  -0.000675  -0.000058   0.000097  -0.000971   0.409822
    34  C   -0.000000   0.000000   0.000000   0.000000  -0.000000   0.000000
    35  H   -0.000000   0.000000   0.000000  -0.000000  -0.000000  -0.000000
    36  H   -0.000000  -0.000000  -0.000000   0.000000  -0.000000   0.000000
    37  H   -0.000000   0.000000  -0.000000   0.000000  -0.000000  -0.000000
              31         32         33         34         35         36
     1  N   -0.000024   0.012822  -0.000039   0.000001  -0.000000   0.000000
     2  N    0.000016  -0.000838   0.000017  -0.000008  -0.000000  -0.000000
     3  C    0.001171  -0.015965   0.001239   0.000000   0.000000   0.000000
     4  C    0.000269   0.003780   0.000251   0.000000   0.000000   0.000000
     5  C   -0.040757  -0.025913  -0.040718  -0.000000   0.000000   0.000000
     6  C   -0.000556  -0.001010  -0.000544  -0.000000  -0.000000  -0.000000
     7  C    0.000025   0.000115   0.000024   0.000000   0.000000  -0.000000
     8  C   -0.000012  -0.000008  -0.000011  -0.000000  -0.000000  -0.000000
     9  C   -0.000001  -0.000000  -0.000001   0.000000   0.000000   0.000000
    10  H    0.000001   0.000020   0.000001   0.000000   0.000000   0.000000
    11  C   -0.000001   0.000000  -0.000001   0.000000   0.000000   0.000000
    12  H   -0.000002  -0.000001  -0.000002  -0.000000  -0.000000  -0.000000
    13  H    0.000000  -0.000000   0.000000  -0.000000  -0.000000  -0.000000
    14  H    0.000000   0.000000   0.000000   0.000000   0.000000   0.000000
    15  C   -0.000001  -0.000348  -0.000000  -0.001624   0.000056   0.000030
    16  C   -0.000000   0.000020  -0.000000   0.007751  -0.000336  -0.000313
    17  C   -0.000003  -0.000154  -0.000007   0.007117   0.000047   0.000273
    18  C   -0.000000  -0.000002  -0.000000  -0.059592   0.000539   0.002622
    19  H    0.000000   0.000004   0.000000  -0.000109   0.000015   0.000016
    20  C   -0.000000  -0.000037  -0.000000  -0.060600  -0.005290  -0.006315
    21  H   -0.000009   0.002781  -0.000008  -0.000044   0.000002  -0.000003
    22  C    0.000000   0.000004   0.000000   0.346521  -0.036108  -0.037509
    23  H    0.000000  -0.000000  -0.000000  -0.008859   0.000168   0.000108
    24  H    0.000000  -0.000007   0.000000  -0.004804   0.000786   0.001040
    25  N   -0.002467   0.003902  -0.002470  -0.000000  -0.000000  -0.000000
    26  C   -0.000681   0.000477  -0.000675   0.000000   0.000000  -0.000000
    27  H    0.000096  -0.000011  -0.000058   0.000000   0.000000  -0.000000
    28  H   -0.000056  -0.000014   0.000097   0.000000  -0.000000   0.000000
    29  H   -0.000969   0.000207  -0.000971  -0.000000  -0.000000  -0.000000
    30  C    0.409836   0.409877   0.409822   0.000000  -0.000000   0.000000
    31  H    0.533353  -0.018831  -0.030105   0.000000   0.000000  -0.000000
    32  H   -0.018831   0.502706  -0.019001   0.000000   0.000000   0.000000
    33  H   -0.030105  -0.019001   0.533380   0.000000  -0.000000   0.000000
    34  C    0.000000   0.000000   0.000000   4.806096   0.405725   0.409242
    35  H    0.000000   0.000000  -0.000000   0.405725   0.553277  -0.027615
    36  H   -0.000000   0.000000   0.000000   0.409242  -0.027615   0.553059
    37  H   -0.000000   0.000000   0.000000   0.415131  -0.025040  -0.025677
              37
     1  N    0.000000
     2  N   -0.000000
     3  C    0.000000
     4  C   -0.000000
     5  C    0.000000
     6  C    0.000000
     7  C    0.000000
     8  C   -0.000000
     9  C   -0.000000
    10  H    0.000000
    11  C    0.000000
    12  H    0.000000
    13  H   -0.000000
    14  H    0.000000
    15  C   -0.000023
    16  C    0.000700
    17  C   -0.000255
    18  C   -0.008085
    19  H   -0.000024
    20  C    0.006921
    21  H    0.000014
    22  C   -0.037478
    23  H    0.002476
    24  H    0.000025
    25  N   -0.000000
    26  C    0.000000
    27  H   -0.000000
    28  H    0.000000
    29  H   -0.000000
    30  C   -0.000000
    31  H   -0.000000
    32  H    0.000000
    33  H    0.000000
    34  C    0.415131
    35  H   -0.025040
    36  H   -0.025677
    37  H    0.552435
 Mulliken charges:
               1
     1  N   -0.176303
     2  N   -0.237776
     3  C   -0.089748
     4  C   -0.059811
     5  C    0.222241
     6  C    0.198153
     7  C   -0.078264
     8  C   -0.084125
     9  C   -0.133458
    10  H    0.109843
    11  C   -0.131299
    12  H    0.128434
    13  H    0.114903
    14  H    0.117507
    15  C    0.003213
    16  C   -0.081399
    17  C   -0.055047
    18  C   -0.091438
    19  H    0.118329
    20  C   -0.097476
    21  H    0.126934
    22  C   -0.132575
    23  H    0.111672
    24  H    0.112062
    25  N   -0.471060
    26  C   -0.174692
    27  H    0.148302
    28  H    0.148295
    29  H    0.147935
    30  C   -0.280018
    31  H    0.149708
    32  H    0.145426
    33  H    0.149781
    34  C   -0.261945
    35  H    0.133776
    36  H    0.131042
    37  H    0.118881
 Sum of Mulliken charges =  -0.00000
 Mulliken charges with hydrogens summed into heavy atoms:
               1
     1  N   -0.176303
     2  N   -0.237776
     3  C   -0.089748
     4  C   -0.059811
     5  C    0.222241
     6  C    0.198153
     7  C    0.031579
     8  C    0.044309
     9  C   -0.018555
    11  C   -0.013792
    15  C    0.003213
    16  C    0.036930
    17  C    0.071886
    18  C    0.020234
    20  C    0.014586
    22  C   -0.132575
    25  N   -0.471060
    26  C    0.269840
    30  C    0.164897
    34  C    0.121753
 Electronic spatial extent (au):  <R**2>=           7852.3356
 Charge=             -0.0000 electrons
 Dipole moment (field-independent basis, Debye):
    X=              3.3700    Y=              4.0423    Z=              0.0249  Tot=              5.2629
 Quadrupole moment (field-independent basis, Debye-Ang):
   XX=            -80.1038   YY=           -100.6819   ZZ=           -123.8888
   XY=             12.1404   XZ=              0.0409   YZ=             -0.2638
 Traceless Quadrupole moment (field-independent basis, Debye-Ang):
   XX=             21.4543   YY=              0.8763   ZZ=            -22.3306
   XY=             12.1404   XZ=              0.0409   YZ=             -0.2638
 Octapole moment (field-independent basis, Debye-Ang**2):
  XXX=             36.2842  YYY=             23.4313  ZZZ=              0.4520  XYY=             25.8503
  XXY=             45.0732  XXZ=              0.7922  XZZ=              4.2627  YZZ=             12.6101
  YYZ=             -0.0176  XYZ=              2.0178
 Hexadecapole moment (field-independent basis, Debye-Ang**3):
 XXXX=          -7526.5633 YYYY=          -1735.4469 ZZZZ=           -156.2040 XXXY=            162.9653
 XXXZ=             -1.7736 YYYX=             77.3211 YYYZ=             -0.8271 ZZZX=              0.0018
 ZZZY=              0.4063 XXYY=          -1572.2571 XXZZ=          -1585.8781 YYZZ=           -367.1529
 XXYZ=             -4.9176 YYXZ=              0.2813 ZZXY=             29.7883
 N-N= 1.398925284013D+03 E-N=-4.709776393251D+03  KE= 8.192568453845D+02
 Leave Link  601 at Thu Feb  6 13:24:54 2025, MaxMem= 25501368320 cpu:               5.2 elap:               0.2
 (Enter /share/Apps/gaussian/g16/l9999.exe)
 Electronic transition elements 
                 1             2             3             4             5 
      1  -0.821922D+03 -0.821901D+03 -0.821864D+03 -0.821854D+03 -0.821852D+03
      2  -0.117830D+00 -0.345431D+01  0.240010D+00  0.613698D-01 -0.611272D+00
      3   0.842497D-02  0.262901D+00  0.119055D+00  0.210493D+00 -0.106419D+01
      4   0.844046D-02 -0.278682D-02 -0.118001D-02 -0.430172D-02  0.599881D-02
      5   0.127513D-01  0.445752D+00 -0.433951D-01 -0.956069D-02  0.104410D+00
      6  -0.702784D-03 -0.262478D-01 -0.233465D-01 -0.382634D-01  0.192310D+00
      7   0.188790D-02  0.573657D-03  0.241812D-03  0.654397D-03 -0.807469D-03
      8  -0.897404D+00  0.218569D-01 -0.317603D-03 -0.351178D-02 -0.217673D-02
      9   0.450265D+00 -0.241210D-01  0.410515D-02  0.255874D-03 -0.162278D-01
     10  -0.149252D-01 -0.217428D+00  0.453130D+00  0.364983D+00 -0.897059D+00
     11   0.425041D-01  0.101195D+01  0.482700D+00 -0.254894D+00  0.119075D+01
     12  -0.138308D-01 -0.561428D+00 -0.803887D-01 -0.441295D-01 -0.706421D-01
     13   0.110773D-02 -0.964514D-02 -0.497053D-02  0.349544D-02  0.230581D-01
     14  -0.491209D-03  0.346772D-01 -0.346114D-01  0.233414D+00 -0.758217D+00
     15  -0.112793D-02 -0.744508D-04  0.178306D-03 -0.953872D-03  0.701804D-02
     16  -0.716087D-01  0.165291D-01  0.691697D-03  0.355123D-03  0.314760D-02
                 6             7             8             9            10 
      1  -0.821846D+03 -0.821837D+03 -0.821823D+03 -0.821815D+03 -0.821812D+03
      2  -0.594866D+00  0.297648D+00 -0.674042D+00 -0.884941D-02 -0.623110D+00
      3   0.683476D+00  0.175292D+00  0.909282D+00  0.514326D-01 -0.102575D+01
      4  -0.118502D-01 -0.151099D-01  0.523704D-01 -0.971883D-02  0.322800D-02
      5   0.114914D+00 -0.551818D-01  0.138999D+00  0.184503D-02  0.141044D+00
      6  -0.127223D+00 -0.300328D-01 -0.195840D+00 -0.111987D-01  0.224147D+00
      7   0.248710D-02  0.347700D-02 -0.115371D-01  0.692954D-02 -0.101023D-02
      8   0.267338D-02  0.166527D-02  0.106471D-01 -0.145228D+00 -0.191804D-02
      9  -0.582905D-03 -0.159282D-01  0.934134D-01 -0.553497D-02 -0.203350D-01
     10   0.139961D+01  0.100113D+01 -0.180744D+01  0.163601D-01 -0.945061D+00
     11   0.475907D+00  0.220379D+01  0.154731D+01  0.104456D+00 -0.228560D+01
     12   0.803207D-01  0.218813D+00  0.295248D-01  0.124934D-01 -0.272821D+00
     13  -0.120161D-02  0.205598D-01  0.880602D-02  0.290611D-02 -0.934185D-02
     14   0.751890D+00  0.678992D+00 -0.142455D+01  0.243736D-01 -0.163989D+01
     15  -0.231882D-02  0.501518D-02 -0.783787D-01 -0.339783D-01  0.313585D-01
     16   0.526967D-03 -0.305076D-02  0.495747D-02 -0.440788D-01  0.480736D-02
                11            12            13            14            15 
      1  -0.821810D+03 -0.821806D+03 -0.821799D+03 -0.821796D+03 -0.821790D+03
      2  -0.165579D-01  0.562736D+00 -0.268532D+00 -0.211085D+00  0.907015D-01
      3  -0.162453D+00  0.122697D+01  0.378438D+00  0.571550D+00  0.171142D-01
      4   0.241729D-01 -0.106905D-01 -0.113560D-01 -0.386641D-02 -0.308234D-01
      5   0.493543D-02 -0.130090D+00  0.526878D-01  0.510973D-01 -0.215421D-01
      6   0.356077D-01 -0.269708D+00 -0.867201D-01 -0.133623D+00 -0.399064D-02
      7  -0.532866D-03  0.236404D-02  0.353635D-02  0.810647D-03  0.106278D-01
      8  -0.840888D-01 -0.113515D-01 -0.258207D-01  0.621190D-02 -0.576048D+00
      9   0.366867D-01  0.460987D-03 -0.670089D-02  0.111972D-02  0.297912D+00
     10  -0.472842D-01  0.439210D-01 -0.146673D+00  0.496011D+00  0.239426D-01
     11  -0.420722D+00  0.179762D+01  0.724514D+00 -0.640878D+00 -0.208697D+00
     12  -0.187195D-01 -0.133544D+00 -0.181934D+00  0.455961D+00  0.371008D-01
     13  -0.439159D-02 -0.399566D-01 -0.330075D-01  0.407076D-02 -0.281059D-02
     14  -0.198909D+00  0.189456D+01  0.514695D+00  0.919450D+00  0.318219D-01
     15  -0.263551D-01 -0.120805D-01  0.174106D-01 -0.101889D-01  0.725205D-02
     16  -0.689062D-02  0.325352D-02  0.358685D-02 -0.354500D-02 -0.831015D-01
                16            17            18            19            20 
      1  -0.821783D+03 -0.821782D+03 -0.821780D+03 -0.821775D+03 -0.821775D+03
      2  -0.696073D+00 -0.142854D+00 -0.179180D+01  0.587711D-02 -0.463227D-01
      3   0.285810D+00  0.221231D-01  0.294362D+00  0.153596D+01 -0.270819D+00
      4   0.220704D-01 -0.126232D+00 -0.128867D-01  0.844086D-02  0.108922D+00
      5   0.177060D+00  0.357658D-01  0.453433D+00 -0.224627D-02  0.117791D-01
      6  -0.757759D-01 -0.572480D-02 -0.745321D-01 -0.392531D+00  0.692962D-01
      7  -0.541359D-02  0.262011D-01  0.352448D-02 -0.346987D-02 -0.358848D-01
      8   0.122600D-01 -0.658405D-01 -0.108402D-01  0.409215D-01  0.169602D+00
      9   0.577779D-02  0.388989D+00 -0.252110D-01  0.100748D-01 -0.648011D-01
     10   0.380741D+00  0.145879D+00  0.238703D+01  0.183263D+01 -0.303943D+00
     11   0.239595D+01  0.382280D+00  0.344041D+01 -0.478556D+01  0.903361D+00
     12   0.266556D+00  0.503538D-01  0.928224D+00  0.143777D+01 -0.265399D+00
     13   0.237003D-01  0.398203D-02  0.255468D-01 -0.374714D-01  0.423554D-02
     14  -0.310531D+00  0.579785D-01  0.135605D+01  0.156837D+01 -0.273153D+00
     15  -0.205850D-01 -0.318087D+00  0.412796D-01 -0.253139D-01  0.207087D-02
     16  -0.293002D-02 -0.407467D-01 -0.463390D-02 -0.193333D-02  0.499482D-01
 Unable to Open any file for archive entry.
 1\1\GINC-SOL-E613\SP\RCAM-B3LYP TD-FC\6-311G(d,p)\C17H17N3\CRF524\06-F
 eb-2025\0\\#p td(nstates=20, singlets) cam-b3lyp/6-311g(d,p) scrf=(sol
 vent=acetonitrile)\\me-pai-me_anti-trans_tddft\\0,1\N,0,0.25979,0.6558
 41,-0.006302\N,0,0.930198,-0.403993,-0.005156\C,0,-1.106553,0.508893,-
 0.005467\C,0,-1.948523,-0.665236,0.004618\C,0,-1.939775,1.619504,-0.01
 4331\C,0,-3.271707,-0.183217,0.00145\C,0,-1.731236,-2.045313,0.016835\
 C,0,-4.374901,-1.028795,0.009755\C,0,-2.825891,-2.893306,0.025277\H,0,
 -0.722685,-2.431218,0.019478\C,0,-4.133168,-2.392244,0.021684\H,0,-5.3
 85705,-0.640772,0.007176\H,0,-2.669937,-3.965475,0.034821\H,0,-4.96953
 7,-3.080649,0.028445\C,0,2.336435,-0.216852,-0.000309\C,0,3.109046,-1.
 371235,-0.058371\C,0,2.977043,1.023369,0.064767\C,0,4.494958,-1.29441,
 -0.057472\H,0,2.606594,-2.329954,-0.104693\C,0,4.357034,1.089489,0.066
 794\H,0,2.379544,1.923075,0.115811\C,0,5.14342,-0.065408,0.004106\H,0,
 5.080337,-2.205901,-0.103933\H,0,4.842451,2.05837,0.120163\N,0,-3.2356
 76,1.20378,-0.01032\C,0,-4.420575,2.040246,-0.017176\H,0,-5.02314,1.83
 7484,-0.903922\H,0,-5.023017,1.852189,0.872878\H,0,-4.129634,3.086436,
 -0.025822\C,0,-1.55066,3.053266,-0.027115\H,0,-1.93513,3.577544,0.8509
 29\H,0,-0.466057,3.127107,-0.028183\H,0,-1.935421,3.561602,-0.914365\C
 ,0,6.64471,0.030677,-0.001782\H,0,7.002242,0.523398,-0.909787\H,0,7.00
 5617,0.617068,0.846314\H,0,7.105352,-0.956265,0.047547\\Version=ES64L-
 G16RevC.01\State=1-A\HF=-822.0332147\RMSD=6.621e-09\PG=C01 [X(C17H17N3
 )]\\@
 The archive entry for this job was punched.


 SIGN SEEN IN A RESTAURANT-
 WE RESERVE THE RIGHT TO SERVE REFUSE TO ANYONE.
 Job cpu time:       0 days  2 hours 11 minutes 47.2 seconds.
 Elapsed time:       0 days  0 hours  3 minutes 43.8 seconds.
 File lengths (MBytes):  RWF=   2356 Int=      0 D2E=      0 Chk=    272 Scr=      8
 Normal termination of Gaussian 16 at Thu Feb  6 13:24:54 2025.
