 Entering Gaussian System, Link 0=g16
 Initial command:
 /share/Apps/gaussian/g16/l1.exe "/share/ceph/scratch/crf524/12229063/Gau-3565386.inp" -scrdir="/share/ceph/scratch/crf524/12229063/"
 Entering Link 1 = /share/Apps/gaussian/g16/l1.exe PID=   3565387.
  
 Copyright (c) 1988-2019, Gaussian, Inc.  All Rights Reserved.
  
 This is part of the Gaussian(R) 16 program.  It is based on
 the Gaussian(R) 09 system (copyright 2009, Gaussian, Inc.),
 the Gaussian(R) 03 system (copyright 2003, Gaussian, Inc.),
 the Gaussian(R) 98 system (copyright 1998, Gaussian, Inc.),
 the Gaussian(R) 94 system (copyright 1995, Gaussian, Inc.),
 the Gaussian 92(TM) system (copyright 1992, Gaussian, Inc.),
 the Gaussian 90(TM) system (copyright 1990, Gaussian, Inc.),
 the Gaussian 88(TM) system (copyright 1988, Gaussian, Inc.),
 the Gaussian 86(TM) system (copyright 1986, Carnegie Mellon
 University), and the Gaussian 82(TM) system (copyright 1983,
 Carnegie Mellon University). Gaussian is a federally registered
 trademark of Gaussian, Inc.
  
 This software contains proprietary and confidential information,
 including trade secrets, belonging to Gaussian, Inc.
  
 This software is provided under written license and may be
 used, copied, transmitted, or stored only in accord with that
 written license.
  
 The following legend is applicable only to US Government
 contracts under FAR:
  
                    RESTRICTED RIGHTS LEGEND
  
 Use, reproduction and disclosure by the US Government is
 subject to restrictions as set forth in subparagraphs (a)
 and (c) of the Commercial Computer Software - Restricted
 Rights clause in FAR 52.227-19.
  
 Gaussian, Inc.
 340 Quinnipiac St., Bldg. 40, Wallingford CT 06492
  
  
 ---------------------------------------------------------------
 Warning -- This program may not be used in any manner that
 competes with the business of Gaussian, Inc. or will provide
 assistance to any competitor of Gaussian, Inc.  The licensee
 of this program is prohibited from giving any competitor of
 Gaussian, Inc. access to this program.  By using this program,
 the user acknowledges that Gaussian, Inc. is engaged in the
 business of creating and licensing software in the field of
 computational chemistry and represents and warrants to the
 licensee that it is not a competitor of Gaussian, Inc. and that
 it will not use this program in any manner prohibited above.
 ---------------------------------------------------------------
  

 Cite this work as:
 Gaussian 16, Revision C.01,
 M. J. Frisch, G. W. Trucks, H. B. Schlegel, G. E. Scuseria, 
 M. A. Robb, J. R. Cheeseman, G. Scalmani, V. Barone, 
 G. A. Petersson, H. Nakatsuji, X. Li, M. Caricato, A. V. Marenich, 
 J. Bloino, B. G. Janesko, R. Gomperts, B. Mennucci, H. P. Hratchian, 
 J. V. Ortiz, A. F. Izmaylov, J. L. Sonnenberg, D. Williams-Young, 
 F. Ding, F. Lipparini, F. Egidi, J. Goings, B. Peng, A. Petrone, 
 T. Henderson, D. Ranasinghe, V. G. Zakrzewski, J. Gao, N. Rega, 
 G. Zheng, W. Liang, M. Hada, M. Ehara, K. Toyota, R. Fukuda, 
 J. Hasegawa, M. Ishida, T. Nakajima, Y. Honda, O. Kitao, H. Nakai, 
 T. Vreven, K. Throssell, J. A. Montgomery, Jr., J. E. Peralta, 
 F. Ogliaro, M. J. Bearpark, J. J. Heyd, E. N. Brothers, K. N. Kudin, 
 V. N. Staroverov, T. A. Keith, R. Kobayashi, J. Normand, 
 K. Raghavachari, A. P. Rendell, J. C. Burant, S. S. Iyengar, 
 J. Tomasi, M. Cossi, J. M. Millam, M. Klene, C. Adamo, R. Cammi, 
 J. W. Ochterski, R. L. Martin, K. Morokuma, O. Farkas, 
 J. B. Foresman, and D. J. Fox, Gaussian, Inc., Wallingford CT, 2019.
 
 ******************************************
 Gaussian 16:  ES64L-G16RevC.01  3-Jul-2019
                30-Jan-2025 
 ******************************************
 %nprocshared=36
 Will use up to   36 processors via shared memory.
 %mem=190GB
 %chk=anti-cis.chk
 ----------------------------------------------------------------------
 #p td(nstates=20, singlets) cam-b3lyp/6-311g(d,p) scrf=(solvent=aceton
 itrile)
 ----------------------------------------------------------------------
 1/38=1,172=1/1;
 2/12=2,17=6,18=5,40=1/2;
 3/5=4,6=6,7=101,11=9,25=1,30=1,70=2201,72=2,74=-40/1,2,3,8;
 4//1;
 5/5=2,38=5,53=2/2;
 8/6=1,10=2,108=20/1;
 9/41=20,42=1,48=1,70=2/14;
 6/7=2,8=2,9=2,10=2/1;
 99/5=1,9=1/99;
 Leave Link    1 at Thu Jan 30 16:27:36 2025, MaxMem= 25501368320 cpu:               4.5 elap:               0.1
 (Enter /share/Apps/gaussian/g16/l101.exe)
 -----------------------
 f-pai-me_anti-cis_tddft
 -----------------------
 Symbolic Z-matrix:
 Charge =  0 Multiplicity = 1
 N                    -0.42611  -2.16104  -0.70126 
 N                     0.81278  -2.28747  -0.78431 
 C                    -1.13943  -1.01901  -0.34001 
 C                    -0.93916   0.4157   -0.44958 
 C                    -2.43741  -1.21303   0.1209 
 C                    -2.14199   0.99872   0.00151 
 C                     0.0574    1.266    -0.94236 
 C                    -2.3573    2.37253   0.01763 
 C                    -0.15209   2.63345  -0.93598 
 H                     0.98477   0.87181  -1.33058 
 C                    -1.34322   3.18611  -0.45261 
 H                    -3.29064   2.79113   0.37202 
 H                     0.62302   3.28935  -1.31364 
 H                    -1.47773   4.26081  -0.45731 
 C                     1.74311  -1.32118  -0.30502 
 C                     2.85462  -1.05143  -1.09986 
 C                     1.67397  -0.79781   0.98486 
 C                     3.85962  -0.21389  -0.64345 
 H                     2.91858  -1.50178  -2.08249 
 C                     2.68899   0.01645   1.46133 
 H                     0.83132  -1.03399   1.62116 
 C                     3.75551   0.30468   0.63264 
 H                     4.72149   0.0234   -1.25333 
 H                     2.65921   0.42884   2.46148 
 N                    -3.01814  -0.00991   0.36505 
 C                    -4.3531    0.22465   0.88286 
 H                    -4.30913   0.91937   1.72188 
 H                    -5.00111   0.64044   0.10907 
 H                    -4.77858  -0.71129   1.23279 
 C                    -3.13381  -2.50488   0.35139 
 H                    -4.11348  -2.51709  -0.13026 
 H                    -2.52557  -3.30826  -0.05701 
 H                    -3.28227  -2.69512   1.41748 
 F                     4.73847   1.10767   1.09187 
 
 ITRead=  0  0  0  0  0  0  0  0  0  0  0  0  0  0  0  0  0  0  0  0
 ITRead=  0  0  0  0  0  0  0  0  0  0  0  0  0  0
 MicOpt= -1 -1 -1 -1 -1 -1 -1 -1 -1 -1 -1 -1 -1 -1 -1 -1 -1 -1 -1 -1
 MicOpt= -1 -1 -1 -1 -1 -1 -1 -1 -1 -1 -1 -1 -1 -1
 NAtoms=     34 NQM=       34 NQMF=       0 NMMI=      0 NMMIF=      0
                NMic=       0 NMicF=      0.
                    Isotopes and Nuclear Properties:
 (Nuclear quadrupole moments (NQMom) in fm**2, nuclear magnetic moments (NMagM)
  in nuclear magnetons)

  Atom         1           2           3           4           5           6           7           8           9          10
 IAtWgt=          14          14          12          12          12          12          12          12          12           1
 AtmWgt=  14.0030740  14.0030740  12.0000000  12.0000000  12.0000000  12.0000000  12.0000000  12.0000000  12.0000000   1.0078250
 NucSpn=           2           2           0           0           0           0           0           0           0           1
 AtZEff=  -0.0000000  -0.0000000  -0.0000000  -0.0000000  -0.0000000  -0.0000000  -0.0000000  -0.0000000  -0.0000000  -0.0000000
 NQMom=    2.0440000   2.0440000   0.0000000   0.0000000   0.0000000   0.0000000   0.0000000   0.0000000   0.0000000   0.0000000
 NMagM=    0.4037610   0.4037610   0.0000000   0.0000000   0.0000000   0.0000000   0.0000000   0.0000000   0.0000000   2.7928460
 AtZNuc=   7.0000000   7.0000000   6.0000000   6.0000000   6.0000000   6.0000000   6.0000000   6.0000000   6.0000000   1.0000000

  Atom        11          12          13          14          15          16          17          18          19          20
 IAtWgt=          12           1           1           1          12          12          12          12           1          12
 AtmWgt=  12.0000000   1.0078250   1.0078250   1.0078250  12.0000000  12.0000000  12.0000000  12.0000000   1.0078250  12.0000000
 NucSpn=           0           1           1           1           0           0           0           0           1           0
 AtZEff=  -0.0000000  -0.0000000  -0.0000000  -0.0000000  -0.0000000  -0.0000000  -0.0000000  -0.0000000  -0.0000000  -0.0000000
 NQMom=    0.0000000   0.0000000   0.0000000   0.0000000   0.0000000   0.0000000   0.0000000   0.0000000   0.0000000   0.0000000
 NMagM=    0.0000000   2.7928460   2.7928460   2.7928460   0.0000000   0.0000000   0.0000000   0.0000000   2.7928460   0.0000000
 AtZNuc=   6.0000000   1.0000000   1.0000000   1.0000000   6.0000000   6.0000000   6.0000000   6.0000000   1.0000000   6.0000000

  Atom        21          22          23          24          25          26          27          28          29          30
 IAtWgt=           1          12           1           1          14          12           1           1           1          12
 AtmWgt=   1.0078250  12.0000000   1.0078250   1.0078250  14.0030740  12.0000000   1.0078250   1.0078250   1.0078250  12.0000000
 NucSpn=           1           0           1           1           2           0           1           1           1           0
 AtZEff=  -0.0000000  -0.0000000  -0.0000000  -0.0000000  -0.0000000  -0.0000000  -0.0000000  -0.0000000  -0.0000000  -0.0000000
 NQMom=    0.0000000   0.0000000   0.0000000   0.0000000   2.0440000   0.0000000   0.0000000   0.0000000   0.0000000   0.0000000
 NMagM=    2.7928460   0.0000000   2.7928460   2.7928460   0.4037610   0.0000000   2.7928460   2.7928460   2.7928460   0.0000000
 AtZNuc=   1.0000000   6.0000000   1.0000000   1.0000000   7.0000000   6.0000000   1.0000000   1.0000000   1.0000000   6.0000000

  Atom        31          32          33          34
 IAtWgt=           1           1           1          19
 AtmWgt=   1.0078250   1.0078250   1.0078250  18.9984032
 NucSpn=           1           1           1           1
 AtZEff=  -0.0000000  -0.0000000  -0.0000000  -0.0000000
 NQMom=    0.0000000   0.0000000   0.0000000   0.0000000
 NMagM=    2.7928460   2.7928460   2.7928460   2.6288670
 AtZNuc=   1.0000000   1.0000000   1.0000000   9.0000000
 Leave Link  101 at Thu Jan 30 16:27:36 2025, MaxMem= 25501368320 cpu:               3.7 elap:               0.1
 (Enter /share/Apps/gaussian/g16/l202.exe)
                          Input orientation:                          
 ---------------------------------------------------------------------
 Center     Atomic      Atomic             Coordinates (Angstroms)
 Number     Number       Type             X           Y           Z
 ---------------------------------------------------------------------
      1          7           0       -0.426110   -2.161042   -0.701258
      2          7           0        0.812778   -2.287468   -0.784305
      3          6           0       -1.139429   -1.019013   -0.340006
      4          6           0       -0.939160    0.415697   -0.449579
      5          6           0       -2.437413   -1.213031    0.120899
      6          6           0       -2.141988    0.998723    0.001509
      7          6           0        0.057395    1.266002   -0.942357
      8          6           0       -2.357299    2.372529    0.017631
      9          6           0       -0.152089    2.633451   -0.935978
     10          1           0        0.984767    0.871808   -1.330578
     11          6           0       -1.343216    3.186108   -0.452610
     12          1           0       -3.290639    2.791127    0.372021
     13          1           0        0.623024    3.289354   -1.313639
     14          1           0       -1.477732    4.260812   -0.457314
     15          6           0        1.743107   -1.321184   -0.305019
     16          6           0        2.854615   -1.051432   -1.099859
     17          6           0        1.673973   -0.797808    0.984864
     18          6           0        3.859618   -0.213891   -0.643454
     19          1           0        2.918579   -1.501782   -2.082485
     20          6           0        2.688990    0.016445    1.461332
     21          1           0        0.831316   -1.033987    1.621157
     22          6           0        3.755512    0.304679    0.632637
     23          1           0        4.721492    0.023395   -1.253327
     24          1           0        2.659213    0.428837    2.461481
     25          7           0       -3.018139   -0.009905    0.365045
     26          6           0       -4.353096    0.224648    0.882860
     27          1           0       -4.309131    0.919371    1.721877
     28          1           0       -5.001107    0.640436    0.109071
     29          1           0       -4.778583   -0.711289    1.232794
     30          6           0       -3.133813   -2.504878    0.351389
     31          1           0       -4.113483   -2.517085   -0.130257
     32          1           0       -2.525567   -3.308262   -0.057014
     33          1           0       -3.282272   -2.695124    1.417478
     34          9           0        4.738466    1.107670    1.091867
 ---------------------------------------------------------------------
                    Distance matrix (angstroms):
                    1          2          3          4          5
     1  N    0.000000
     2  N    1.248088   0.000000
     3  C    1.394115   2.370125   0.000000
     4  C    2.639346   3.238584   1.452758   0.000000
     5  C    2.370655   3.540840   1.390985   2.285380   0.000000
     6  C    3.663637   4.488563   2.278819   1.410743   2.234588
     7  C    3.469371   3.636308   2.648869   1.399632   3.674260
     8  C    4.979915   5.692808   3.621280   2.461421   3.587941
     9  C    4.808050   5.016913   3.830211   2.403018   4.597295
    10  H    3.403645   3.210766   3.011419   2.164646   4.262001
    11  C    5.430923   5.892229   4.211562   2.799723   4.569311
    12  H    5.820776   6.630780   4.433041   3.441969   4.101748
    13  H    5.584130   5.605100   4.755652   3.383035   5.629889
    14  H    6.511960   6.945022   5.291953   3.882657   5.587332
    15  C    2.359633   1.424406   2.898542   3.198782   4.203552
    16  C    3.486155   2.407583   4.065811   4.119231   5.433408
    17  C    3.018570   2.467935   3.117602   3.218491   4.221651
    18  C    4.707675   3.688197   5.072551   4.843784   6.421457
    19  H    3.678227   2.595568   4.442604   4.607088   5.798701
    20  C    4.372882   3.724389   4.355891   4.120007   5.439520
    21  H    2.871408   2.712528   2.780327   3.086117   3.601030
    22  C    5.034384   4.169728   5.163201   4.819073   6.396690
    23  H    5.619106   4.564878   6.022555   5.730872   7.393725
    24  H    5.121485   4.617658   4.937032   4.628470   5.843770
    25  N    3.533130   4.602632   2.246096   2.273082   1.358073
    26  C    4.860264   5.981339   3.656467   3.669721   2.513433
    27  H    5.517099   6.542073   4.249200   4.040497   3.257852
    28  H    5.425450   6.570540   4.227055   4.106338   3.163543
    29  H    4.978590   6.149500   3.976410   4.340696   2.639911
    30  C    2.925396   4.112499   2.581354   3.740028   1.485587
    31  H    3.748270   4.974791   3.336647   4.333532   2.138422
    32  H    2.477677   3.565883   2.691119   4.066776   2.104618
    33  H    3.596102   4.667276   3.238808   4.318945   2.142779
    34  F    6.369664   5.518878   6.412698   5.923708   7.604056
                    6          7          8          9         10
     6  C    0.000000
     7  C    2.408237   0.000000
     8  C    1.390670   2.824310   0.000000
     9  C    2.740605   1.383416   2.416692   0.000000
    10  H    3.401053   1.079872   3.903746   2.133433   0.000000
    11  C    2.372533   2.426596   1.382535   1.399235   3.397987
    12  H    2.160877   3.906780   1.082562   3.403854   4.986153
    13  H    3.823859   2.133481   3.390453   1.083345   2.444519
    14  H    3.360503   3.400113   2.136545   2.152848   4.279234
    15  C    4.535404   3.152992   5.528196   4.430464   2.536940
    16  C    5.512004   3.635897   6.335325   4.758728   2.692288
    17  C    4.330828   3.253739   5.218978   4.335629   2.936647
    18  C    6.156759   4.091006   6.765845   4.928156   3.148913
    19  H    6.017050   4.140881   6.874275   5.276707   3.152606
    20  C    5.141430   3.776825   5.753298   4.546157   3.380944
    21  H    3.949140   3.529944   4.933854   4.577786   3.516865
    22  C    5.971643   4.132895   6.482337   4.811765   3.442801
    23  H    7.045086   4.836794   7.565913   5.537589   3.832608
    24  H    5.424736   4.365365   5.908954   4.930159   4.168897
    25  N    1.384604   3.577170   2.496677   4.110260   4.435743
    26  C    2.502992   4.885516   3.056995   5.172907   5.814715
    27  H    2.768117   5.126875   2.970820   5.223338   6.111064
    28  H    2.883488   5.204352   3.161997   5.345766   6.160910
    29  H    3.375180   5.659297   4.104774   6.106988   6.503328
    30  C    3.658053   5.106576   4.950098   6.078685   5.585134
    31  H    4.032996   5.689242   5.197536   6.547507   6.238391
    32  H    4.324428   5.327233   5.683773   6.458322   5.605122
    33  H    4.117004   5.693217   5.338188   6.612905   6.203421
    34  F    6.967166   5.106424   7.287231   5.509781   4.473715
                   11         12         13         14         15
    11  C    0.000000
    12  H    2.151391   0.000000
    13  H    2.148984   4.290272   0.000000
    14  H    1.083100   2.476773   2.467833   0.000000
    15  C    5.464692   6.535142   4.850666   6.446369   0.000000
    16  C    5.999788   7.395663   4.885501   6.884913   1.392834
    17  C    5.200130   6.156574   4.805466   6.132109   1.393736
    18  C    6.218191   7.822244   4.816369   6.967418   2.412520
    19  H    6.541842   7.937761   5.368024   7.428070   2.138629
    20  C    5.474360   6.681424   4.762417   6.249594   2.409137
    21  H    5.180570   5.760412   5.229502   6.138945   2.150349
    22  C    5.956293   7.476536   4.744339   6.650250   2.751800
    23  H    6.886551   8.631126   5.240951   7.551140   3.402640
    24  H    5.666913   6.734018   5.155594   6.349623   3.399316
    25  N    3.699787   2.814265   5.192413   4.613909   4.983764
    26  C    4.428668   2.824285   6.243300   5.133654   6.400339
    27  H    4.320086   2.522480   6.257582   4.891924   6.764464
    28  H    4.491781   2.760492   6.377438   5.083511   7.035897
    29  H    5.461871   3.901516   7.187964   6.202731   6.728245
    30  C    6.019965   5.298367   7.103469   7.012215   5.061260
    31  H    6.348598   5.395041   7.586147   7.279700   5.979997
    32  H    6.612964   6.162139   7.417632   7.651737   4.715036
    33  H    6.468853   5.584980   7.650119   7.426726   5.487180
    34  F    6.610005   8.235213   5.242429   7.140265   4.101560
                   16         17         18         19         20
    16  C    0.000000
    17  C    2.409214   0.000000
    18  C    1.385573   2.787368   0.000000
    19  H    1.082802   3.384266   2.148262   0.000000
    20  C    2.779837   1.385745   2.419411   3.862171   0.000000
    21  H    3.390866   1.081998   3.869320   4.276969   2.140071
    22  C    2.377435   2.381669   1.381362   3.366845   1.381044
    23  H    2.159638   3.869269   1.082163   2.502831   3.391237
    24  H    3.861673   2.157720   3.390382   4.943904   1.082244
    25  N    6.141658   4.798008   6.954295   6.592475   5.811528
    26  C    7.583578   6.114032   8.364844   8.040590   7.068872
    27  H    7.947674   6.268128   8.579483   8.519093   7.060939
    28  H    8.126272   6.884203   8.933567   8.491963   7.832979
    29  H    7.988910   6.457897   8.853600   8.417972   7.506429
    30  C    6.330868   5.141030   7.426063   6.600106   6.441590
    31  H    7.186283   6.139548   8.314951   7.368306   7.431391
    32  H    5.926818   5.002402   7.119665   6.083143   6.367940
    33  H    6.833746   5.324596   7.836488   7.219720   6.558239
    34  F    3.607531   3.610182   2.351645   4.494189   2.351091
                   21         22         23         24         25
    21  H    0.000000
    22  C    3.364539   0.000000
    23  H    4.951180   2.137545   0.000000
    24  H    2.487409   2.135874   4.268158   0.000000
    25  N    4.176705   6.786230   7.907093   6.067937   0.000000
    26  C    5.385849   8.112863   9.324803   7.190703   1.450951
    27  H    5.499995   8.161051   9.550223   7.024632   2.090743
    28  H    6.253579   8.778680   9.836961   8.016178   2.102529
    29  H    5.632577   8.615286   9.847435   7.624327   2.084248
    30  C    4.415663   7.445503   8.406729   6.827761   2.497690
    31  H    5.451428   8.394370   9.261323   7.827194   2.780477
    32  H    4.388308   7.278799   8.065418   6.869547   3.361535
    33  H    4.440998   7.690591   8.864749   6.793403   2.896167
    34  F    4.486944   1.349772   2.583772   2.580688   7.870335
                   26         27         28         29         30
    26  C    0.000000
    27  H    1.090194   0.000000
    28  H    1.091580   1.777014   0.000000
    29  H    1.086035   1.765967   1.771844   0.000000
    30  C    3.036351   3.871058   3.665857   2.588263   0.000000
    31  H    2.932733   3.908697   3.288631   2.358212   1.091735
    32  H    4.087136   4.921223   4.663486   3.672050   1.087282
    33  H    3.155558   3.769837   3.973951   2.491717   1.093060
    34  F    9.136734   9.071460   9.800177   9.690340   8.693192
                   31         32         33         34
    31  H    0.000000
    32  H    1.775613   0.000000
    33  H    1.765812   1.767107   0.000000
    34  F    9.643103   8.578261   8.882539   0.000000
 Stoichiometry    C16H14FN3
 Framework group  C1[X(C16H14FN3)]
 Deg. of freedom    96
 Full point group                 C1      NOp   1
 Largest Abelian subgroup         C1      NOp   1
 Largest concise Abelian subgroup C1      NOp   1
                         Standard orientation:                         
 ---------------------------------------------------------------------
 Center     Atomic      Atomic             Coordinates (Angstroms)
 Number     Number       Type             X           Y           Z
 ---------------------------------------------------------------------
      1          7           0       -0.426110   -2.161042   -0.701258
      2          7           0        0.812778   -2.287468   -0.784305
      3          6           0       -1.139429   -1.019013   -0.340006
      4          6           0       -0.939160    0.415697   -0.449579
      5          6           0       -2.437413   -1.213031    0.120899
      6          6           0       -2.141988    0.998723    0.001509
      7          6           0        0.057395    1.266002   -0.942357
      8          6           0       -2.357299    2.372529    0.017631
      9          6           0       -0.152089    2.633451   -0.935978
     10          1           0        0.984767    0.871808   -1.330578
     11          6           0       -1.343216    3.186108   -0.452610
     12          1           0       -3.290639    2.791127    0.372021
     13          1           0        0.623024    3.289354   -1.313639
     14          1           0       -1.477732    4.260812   -0.457314
     15          6           0        1.743107   -1.321184   -0.305019
     16          6           0        2.854615   -1.051432   -1.099859
     17          6           0        1.673973   -0.797808    0.984864
     18          6           0        3.859618   -0.213891   -0.643454
     19          1           0        2.918579   -1.501782   -2.082485
     20          6           0        2.688990    0.016445    1.461332
     21          1           0        0.831316   -1.033987    1.621157
     22          6           0        3.755512    0.304679    0.632637
     23          1           0        4.721492    0.023395   -1.253327
     24          1           0        2.659213    0.428837    2.461481
     25          7           0       -3.018139   -0.009905    0.365045
     26          6           0       -4.353096    0.224648    0.882860
     27          1           0       -4.309131    0.919371    1.721877
     28          1           0       -5.001107    0.640436    0.109071
     29          1           0       -4.778583   -0.711289    1.232794
     30          6           0       -3.133813   -2.504878    0.351389
     31          1           0       -4.113483   -2.517085   -0.130257
     32          1           0       -2.525567   -3.308262   -0.057014
     33          1           0       -3.282272   -2.695124    1.417478
     34          9           0        4.738466    1.107670    1.091867
 ---------------------------------------------------------------------
 Rotational constants (GHZ):           0.5938502           0.2436507           0.1948363
 Leave Link  202 at Thu Jan 30 16:27:36 2025, MaxMem= 25501368320 cpu:               0.6 elap:               0.0
 (Enter /share/Apps/gaussian/g16/l301.exe)
 Standard basis: 6-311G(d,p) (5D, 7F)
 Ernie: Thresh=  0.10000D-02 Tol=  0.10000D-05 Strict=F.
 There are   464 symmetry adapted cartesian basis functions of A   symmetry.
 There are   444 symmetry adapted basis functions of A   symmetry.
   444 basis functions,   752 primitive gaussians,   464 cartesian basis functions
    70 alpha electrons       70 beta electrons
       nuclear repulsion energy      1479.5633841979 Hartrees.
 IExCor=20419 DFT=T Ex+Corr=CAM-B3LYP ExCW=0 ScaHFX=  1.000000
 ScaDFX=  1.000000  1.000000  1.000000  0.810000 ScalE2=  1.000000  1.000000
 IRadAn=      5 IRanWt=     -1 IRanGd=            0 ICorTp=0 IEmpDi=  4
 HFx  wShort=  0.000000 wLong=  0.330000 cFull=  0.190000 cShort=  0.000000 cLong=  0.460000
 DFx  wShort=  0.000000 wLong=  0.330000 cFull=  0.190000 cShort=  0.000000 cLong=  0.460000
 NAtoms=   34 NActive=   34 NUniq=   34 SFac= 1.00D+00 NAtFMM=   60 NAOKFM=F Big=F
 Integral buffers will be    131072 words long.
 Raffenetti 1 integral format.
 Two-electron integral symmetry is turned on.
 ------------------------------------------------------------------------------
 Polarizable Continuum Model (PCM)
 =================================
 Model                : PCM.
 Atomic radii         : UFF (Universal Force Field).
 Polarization charges : Total charges.
 Charge compensation  : None.
 Solution method      : On-the-fly selection.
 Cavity type          : Scaled VdW (van der Waals Surface) (Alpha=1.100).
 Cavity algorithm     : GePol (No added spheres)
                        Default sphere list used, NSphG=   34.
                        Lebedev-Laikov grids with approx.  5.0 points / Ang**2.
                        Smoothing algorithm: York/Karplus (Gamma=1.0000).
                        Polarization charges: spherical gaussians, with
                                              point-specific exponents (IZeta= 3).
                        Self-potential: point-specific (ISelfS= 7).
                        Self-field    : sphere-specific E.n sum rule (ISelfD= 2).
 Solvent              : Acetonitrile, Eps=  35.688000 Eps(inf)=   1.806874
 ------------------------------------------------------------------------------
 GePol: Number of generator spheres                  =      34
 GePol: Total number of spheres                      =      34
 GePol: Number of exposed spheres                    =      34 (100.00%)
 GePol: Number of points                             =    2576
 GePol: Average weight of points                     =       0.13
 GePol: Minimum weight of points                     =   0.35D-08
 GePol: Maximum weight of points                     =    0.20577
 GePol: Number of points with low weight             =     170
 GePol: Fraction of low-weight points (<1% of avg)   =       6.60%
 GePol: Cavity surface area                          =    329.954 Ang**2
 GePol: Cavity volume                                =    363.556 Ang**3
 Leave Link  301 at Thu Jan 30 16:27:37 2025, MaxMem= 25501368320 cpu:               4.2 elap:               0.1
 (Enter /share/Apps/gaussian/g16/l302.exe)
 NPDir=0 NMtPBC=     1 NCelOv=     1 NCel=       1 NClECP=     1 NCelD=      1
         NCelK=      1 NCelE2=     1 NClLst=     1 CellRange=     0.0.
 One-electron integrals computed using PRISM.
 One-electron integral symmetry used in STVInt
 NBasis=   444 RedAO= T EigKep=  1.23D-04  NBF=   444
 NBsUse=   444 1.00D-06 EigRej= -1.00D+00 NBFU=   444
 Precomputing XC quadrature grid using
 IXCGrd= 4 IRadAn=           5 IRanWt=          -1 IRanGd=           0 AccXCQ= 0.00D+00.
 Generated NRdTot=       0 NPtTot=           0 NUsed=           0 NTot=          32
 NSgBfM=   464   464   464   464   464 MxSgAt=    34 MxSgA2=    34.
 Leave Link  302 at Thu Jan 30 16:27:37 2025, MaxMem= 25501368320 cpu:              13.8 elap:               0.4
 (Enter /share/Apps/gaussian/g16/l303.exe)
 DipDrv:  MaxL=1.
 Leave Link  303 at Thu Jan 30 16:27:37 2025, MaxMem= 25501368320 cpu:               1.6 elap:               0.1
 (Enter /share/Apps/gaussian/g16/l308.exe)
 Leave Link  308 at Thu Jan 30 16:27:38 2025, MaxMem= 25501368320 cpu:               2.2 elap:               0.1
 (Enter /share/Apps/gaussian/g16/l401.exe)
 ExpMin= 1.03D-01 ExpMax= 1.14D+04 ExpMxC= 1.72D+03 IAcc=3 IRadAn=         5 AccDes= 0.00D+00
 Harris functional with IExCor=20419 and IRadAn=       5 diagonalized for initial guess.
 HarFok:  IExCor=20419 AccDes= 0.00D+00 IRadAn=         5 IDoV= 1 UseB2=F ITyADJ=14
 ICtDFT=  3500011 ScaDFX=  1.000000  1.000000  1.000000  1.000000
 FoFCou: FMM=F IPFlag=           0 FMFlag=      100000 FMFlg1=           0
         NFxFlg=           0 DoJE=T BraDBF=F KetDBF=T FulRan=T
         wScrn=  0.000000 ICntrl=       500 IOpCl=  0 I1Cent=   200000004 NGrid=           0
         NMat0=    1 NMatS0=      1 NMatT0=    0 NMatD0=    1 NMtDS0=    0 NMtDT0=    0
 Petite list used in FoFCou.
 Harris En= -848.198617055729    
 JPrj=0 DoOrth=F DoCkMO=F.
 Leave Link  401 at Thu Jan 30 16:27:39 2025, MaxMem= 25501368320 cpu:              29.2 elap:               0.9
 (Enter /share/Apps/gaussian/g16/l502.exe)
 Integral symmetry usage will be decided dynamically.
 Closed shell SCF:
 Using DIIS extrapolation, IDIIS=  1040.
 NGot= 25501368320 LenX= 25500915638 LenY= 25500699878
 Requested convergence on RMS density matrix=1.00D-08 within 128 cycles.
 Requested convergence on MAX density matrix=1.00D-06.
 Requested convergence on             energy=1.00D-06.
 No special actions if energy rises.
 Fock matrices will be formed incrementally for  20 cycles.

 Cycle   1  Pass 1  IDiag  1:
 FoFJK:  IHMeth= 1 ICntrl=       0 DoSepK=T KAlg= 0 I1Cent=           0 FoldK=F
 IRaf=         1 NMat=       1 IRICut=       1 DoRegI=T DoRafI=F ISym2E= 0 IDoP0=0 IntGTp=1.
 FoFCou: FMM=F IPFlag=           0 FMFlag=      100000 FMFlg1=           0
         NFxFlg=           0 DoJE=T BraDBF=F KetDBF=F FulRan=T
         wScrn=  0.000000 ICntrl=       500 IOpCl=  0 I1Cent=           0 NGrid=           0
         NMat0=    1 NMatS0=      1 NMatT0=    0 NMatD0=    1 NMtDS0=    0 NMtDT0=    0
 Symmetry not used in FoFCou.
 Inv3:  Mode=1 IEnd=    19907328.
 Iteration    1 A*A^-1 deviation from unit magnitude is 3.55D-15 for   1149.
 Iteration    1 A*A^-1 deviation from orthogonality  is 2.73D-15 for   2160   1969.
 Iteration    1 A^-1*A deviation from unit magnitude is 3.55D-15 for   1149.
 Iteration    1 A^-1*A deviation from orthogonality  is 4.93D-11 for   1997   1982.
 E= -881.617909500841    
 DIIS: error= 8.75D-02 at cycle   1 NSaved=   1.
 NSaved= 1 IEnMin= 1 EnMin= -881.617909500841     IErMin= 1 ErrMin= 8.75D-02
 ErrMax= 8.75D-02  0.00D+00 EMaxC= 1.00D-01 BMatC= 1.62D+00 BMatP= 1.62D+00
 IDIUse=3 WtCom= 1.25D-01 WtEn= 8.75D-01
 Coeff-Com:  0.100D+01
 Coeff-En:   0.100D+01
 Coeff:      0.100D+01
 Gap=     0.358 Goal=   None    Shift=    0.000
 GapD=    0.358 DampG=1.000 DampE=0.500 DampFc=0.5000 IDamp=-1.
 Damping current iteration by 5.00D-01
 RMSDP=2.94D-03 MaxDP=1.76D-01              OVMax= 1.51D-01

 Cycle   2  Pass 1  IDiag  1:
 RMSU=  1.38D-03    CP:  9.49D-01
 E= -881.771081082964     Delta-E=       -0.153171582123 Rises=F Damp=T
 DIIS: error= 3.97D-02 at cycle   2 NSaved=   2.
 NSaved= 2 IEnMin= 2 EnMin= -881.771081082964     IErMin= 2 ErrMin= 3.97D-02
 ErrMax= 3.97D-02  0.00D+00 EMaxC= 1.00D-01 BMatC= 3.07D-01 BMatP= 1.62D+00
 IDIUse=3 WtCom= 6.03D-01 WtEn= 3.97D-01
 Coeff-Com: -0.401D+00 0.140D+01
 Coeff-En:   0.000D+00 0.100D+01
 Coeff:     -0.242D+00 0.124D+01
 Gap=     0.291 Goal=   None    Shift=    0.000
 RMSDP=7.86D-04 MaxDP=3.47D-02 DE=-1.53D-01 OVMax= 1.13D-01

 Cycle   3  Pass 1  IDiag  1:
 RMSU=  7.81D-04    CP:  9.52D-01  9.40D-01
 E= -881.901897548589     Delta-E=       -0.130816465625 Rises=F Damp=F
 DIIS: error= 1.23D-02 at cycle   3 NSaved=   3.
 NSaved= 3 IEnMin= 3 EnMin= -881.901897548589     IErMin= 3 ErrMin= 1.23D-02
 ErrMax= 1.23D-02  0.00D+00 EMaxC= 1.00D-01 BMatC= 6.98D-02 BMatP= 3.07D-01
 IDIUse=3 WtCom= 8.77D-01 WtEn= 1.23D-01
 Coeff-Com: -0.261D+00 0.577D+00 0.684D+00
 Coeff-En:   0.000D+00 0.000D+00 0.100D+01
 Coeff:     -0.228D+00 0.506D+00 0.723D+00
 Gap=     0.235 Goal=   None    Shift=    0.000
 RMSDP=6.75D-04 MaxDP=3.91D-02 DE=-1.31D-01 OVMax= 4.72D-02

 Cycle   4  Pass 1  IDiag  1:
 RMSU=  1.93D-04    CP:  9.30D-01  1.35D+00  7.08D-01
 E= -881.948677405330     Delta-E=       -0.046779856742 Rises=F Damp=F
 DIIS: error= 3.21D-03 at cycle   4 NSaved=   4.
 NSaved= 4 IEnMin= 4 EnMin= -881.948677405330     IErMin= 4 ErrMin= 3.21D-03
 ErrMax= 3.21D-03  0.00D+00 EMaxC= 1.00D-01 BMatC= 4.32D-03 BMatP= 6.98D-02
 IDIUse=3 WtCom= 9.68D-01 WtEn= 3.21D-02
 Coeff-Com: -0.113D+00 0.249D+00 0.388D+00 0.475D+00
 Coeff-En:   0.000D+00 0.000D+00 0.000D+00 0.100D+01
 Coeff:     -0.109D+00 0.241D+00 0.376D+00 0.492D+00
 Gap=     0.227 Goal=   None    Shift=    0.000
 RMSDP=1.24D-04 MaxDP=8.09D-03 DE=-4.68D-02 OVMax= 1.13D-02

 Cycle   5  Pass 1  IDiag  1:
 RMSU=  7.93D-05    CP:  9.32D-01  1.31D+00  7.77D-01  7.12D-01
 E= -881.951822739365     Delta-E=       -0.003145334035 Rises=F Damp=F
 DIIS: error= 3.68D-04 at cycle   5 NSaved=   5.
 NSaved= 5 IEnMin= 5 EnMin= -881.951822739365     IErMin= 5 ErrMin= 3.68D-04
 ErrMax= 3.68D-04  0.00D+00 EMaxC= 1.00D-01 BMatC= 5.37D-05 BMatP= 4.32D-03
 IDIUse=3 WtCom= 9.96D-01 WtEn= 3.68D-03
 Coeff-Com: -0.506D-03 0.898D-03 0.275D-01 0.127D+00 0.845D+00
 Coeff-En:   0.000D+00 0.000D+00 0.000D+00 0.000D+00 0.100D+01
 Coeff:     -0.504D-03 0.895D-03 0.274D-01 0.127D+00 0.845D+00
 Gap=     0.228 Goal=   None    Shift=    0.000
 RMSDP=2.89D-05 MaxDP=9.13D-04 DE=-3.15D-03 OVMax= 3.76D-03

 Cycle   6  Pass 1  IDiag  1:
 RMSU=  2.38D-05    CP:  9.32D-01  1.31D+00  7.92D-01  7.65D-01  9.68D-01
 E= -881.951892985467     Delta-E=       -0.000070246102 Rises=F Damp=F
 DIIS: error= 1.52D-04 at cycle   6 NSaved=   6.
 NSaved= 6 IEnMin= 6 EnMin= -881.951892985467     IErMin= 6 ErrMin= 1.52D-04
 ErrMax= 1.52D-04  0.00D+00 EMaxC= 1.00D-01 BMatC= 1.94D-05 BMatP= 5.37D-05
 IDIUse=3 WtCom= 9.98D-01 WtEn= 1.52D-03
 Coeff-Com:  0.125D-01-0.277D-01-0.313D-01-0.886D-03 0.425D+00 0.623D+00
 Coeff-En:   0.000D+00 0.000D+00 0.000D+00 0.000D+00 0.000D+00 0.100D+01
 Coeff:      0.124D-01-0.277D-01-0.313D-01-0.885D-03 0.424D+00 0.623D+00
 Gap=     0.229 Goal=   None    Shift=    0.000
 RMSDP=1.36D-05 MaxDP=4.64D-04 DE=-7.02D-05 OVMax= 1.50D-03

 Cycle   7  Pass 1  IDiag  1:
 RMSU=  7.26D-06    CP:  9.32D-01  1.31D+00  7.94D-01  7.79D-01  1.10D+00
                    CP:  9.75D-01
 E= -881.951913201627     Delta-E=       -0.000020216160 Rises=F Damp=F
 DIIS: error= 4.80D-05 at cycle   7 NSaved=   7.
 NSaved= 7 IEnMin= 7 EnMin= -881.951913201627     IErMin= 7 ErrMin= 4.80D-05
 ErrMax= 4.80D-05  0.00D+00 EMaxC= 1.00D-01 BMatC= 1.25D-06 BMatP= 1.94D-05
 IDIUse=1 WtCom= 1.00D+00 WtEn= 0.00D+00
 Coeff-Com:  0.425D-02-0.941D-02-0.142D-01-0.172D-01 0.521D-01 0.208D+00
 Coeff-Com:  0.777D+00
 Coeff:      0.425D-02-0.941D-02-0.142D-01-0.172D-01 0.521D-01 0.208D+00
 Coeff:      0.777D+00
 Gap=     0.229 Goal=   None    Shift=    0.000
 RMSDP=4.82D-06 MaxDP=1.80D-04 DE=-2.02D-05 OVMax= 6.59D-04

 Cycle   8  Pass 1  IDiag  1:
 RMSU=  2.53D-06    CP:  9.32D-01  1.31D+00  7.94D-01  7.83D-01  1.13D+00
                    CP:  1.09D+00  1.01D+00
 E= -881.951915145039     Delta-E=       -0.000001943412 Rises=F Damp=F
 DIIS: error= 2.36D-05 at cycle   8 NSaved=   8.
 NSaved= 8 IEnMin= 8 EnMin= -881.951915145039     IErMin= 8 ErrMin= 2.36D-05
 ErrMax= 2.36D-05  0.00D+00 EMaxC= 1.00D-01 BMatC= 3.60D-07 BMatP= 1.25D-06
 IDIUse=1 WtCom= 1.00D+00 WtEn= 0.00D+00
 Coeff-Com: -0.198D-04 0.653D-04-0.149D-02-0.750D-02-0.329D-01-0.201D-02
 Coeff-Com:  0.368D+00 0.676D+00
 Coeff:     -0.198D-04 0.653D-04-0.149D-02-0.750D-02-0.329D-01-0.201D-02
 Coeff:      0.368D+00 0.676D+00
 Gap=     0.229 Goal=   None    Shift=    0.000
 RMSDP=1.98D-06 MaxDP=8.89D-05 DE=-1.94D-06 OVMax= 2.80D-04

 Cycle   9  Pass 1  IDiag  1:
 RMSU=  1.25D-06    CP:  9.32D-01  1.31D+00  7.94D-01  7.86D-01  1.15D+00
                    CP:  1.11D+00  1.14D+00  8.95D-01
 E= -881.951915565153     Delta-E=       -0.000000420113 Rises=F Damp=F
 DIIS: error= 9.42D-06 at cycle   9 NSaved=   9.
 NSaved= 9 IEnMin= 9 EnMin= -881.951915565153     IErMin= 9 ErrMin= 9.42D-06
 ErrMax= 9.42D-06  0.00D+00 EMaxC= 1.00D-01 BMatC= 5.89D-08 BMatP= 3.60D-07
 IDIUse=1 WtCom= 1.00D+00 WtEn= 0.00D+00
 Coeff-Com: -0.695D-03 0.155D-02 0.151D-02-0.143D-02-0.255D-01-0.410D-01
 Coeff-Com:  0.563D-01 0.336D+00 0.674D+00
 Coeff:     -0.695D-03 0.155D-02 0.151D-02-0.143D-02-0.255D-01-0.410D-01
 Coeff:      0.563D-01 0.336D+00 0.674D+00
 Gap=     0.229 Goal=   None    Shift=    0.000
 RMSDP=8.76D-07 MaxDP=3.39D-05 DE=-4.20D-07 OVMax= 1.16D-04

 Cycle  10  Pass 1  IDiag  1:
 RMSU=  5.67D-07    CP:  9.32D-01  1.31D+00  7.94D-01  7.86D-01  1.15D+00
                    CP:  1.13D+00  1.17D+00  1.04D+00  9.75D-01
 E= -881.951915639384     Delta-E=       -0.000000074231 Rises=F Damp=F
 DIIS: error= 3.10D-06 at cycle  10 NSaved=  10.
 NSaved=10 IEnMin=10 EnMin= -881.951915639384     IErMin=10 ErrMin= 3.10D-06
 ErrMax= 3.10D-06  0.00D+00 EMaxC= 1.00D-01 BMatC= 6.58D-09 BMatP= 5.89D-08
 IDIUse=1 WtCom= 1.00D+00 WtEn= 0.00D+00
 Coeff-Com: -0.240D-03 0.530D-03 0.688D-03 0.140D-03-0.504D-02-0.175D-01
 Coeff-Com: -0.276D-01 0.548D-01 0.285D+00 0.710D+00
 Coeff:     -0.240D-03 0.530D-03 0.688D-03 0.140D-03-0.504D-02-0.175D-01
 Coeff:     -0.276D-01 0.548D-01 0.285D+00 0.710D+00
 Gap=     0.229 Goal=   None    Shift=    0.000
 RMSDP=3.37D-07 MaxDP=1.08D-05 DE=-7.42D-08 OVMax= 6.21D-05

 Cycle  11  Pass 1  IDiag  1:
 RMSU=  1.74D-07    CP:  9.32D-01  1.31D+00  7.94D-01  7.86D-01  1.15D+00
                    CP:  1.13D+00  1.19D+00  1.08D+00  1.09D+00  9.38D-01
 E= -881.951915649862     Delta-E=       -0.000000010478 Rises=F Damp=F
 DIIS: error= 1.43D-06 at cycle  11 NSaved=  11.
 NSaved=11 IEnMin=11 EnMin= -881.951915649862     IErMin=11 ErrMin= 1.43D-06
 ErrMax= 1.43D-06  0.00D+00 EMaxC= 1.00D-01 BMatC= 8.60D-10 BMatP= 6.58D-09
 IDIUse=1 WtCom= 1.00D+00 WtEn= 0.00D+00
 Coeff-Com:  0.164D-04-0.396D-04-0.533D-07 0.158D-03 0.230D-02 0.546D-03
 Coeff-Com: -0.158D-01-0.283D-01-0.394D-01 0.232D+00 0.848D+00
 Coeff:      0.164D-04-0.396D-04-0.533D-07 0.158D-03 0.230D-02 0.546D-03
 Coeff:     -0.158D-01-0.283D-01-0.394D-01 0.232D+00 0.848D+00
 Gap=     0.229 Goal=   None    Shift=    0.000
 RMSDP=1.47D-07 MaxDP=5.66D-06 DE=-1.05D-08 OVMax= 2.27D-05

 Cycle  12  Pass 1  IDiag  1:
 RMSU=  6.91D-08    CP:  9.32D-01  1.31D+00  7.94D-01  7.86D-01  1.15D+00
                    CP:  1.13D+00  1.19D+00  1.10D+00  1.13D+00  1.06D+00
                    CP:  1.13D+00
 E= -881.951915651543     Delta-E=       -0.000000001681 Rises=F Damp=F
 DIIS: error= 3.86D-07 at cycle  12 NSaved=  12.
 NSaved=12 IEnMin=12 EnMin= -881.951915651543     IErMin=12 ErrMin= 3.86D-07
 ErrMax= 3.86D-07  0.00D+00 EMaxC= 1.00D-01 BMatC= 9.65D-11 BMatP= 8.60D-10
 IDIUse=1 WtCom= 1.00D+00 WtEn= 0.00D+00
 Coeff-Com:  0.260D-04-0.587D-04-0.690D-04 0.261D-04 0.132D-02 0.186D-02
 Coeff-Com: -0.243D-02-0.134D-01-0.466D-01 0.179D-01 0.258D+00 0.783D+00
 Coeff:      0.260D-04-0.587D-04-0.690D-04 0.261D-04 0.132D-02 0.186D-02
 Coeff:     -0.243D-02-0.134D-01-0.466D-01 0.179D-01 0.258D+00 0.783D+00
 Gap=     0.229 Goal=   None    Shift=    0.000
 RMSDP=4.63D-08 MaxDP=1.50D-06 DE=-1.68D-09 OVMax= 7.67D-06

 Cycle  13  Pass 1  IDiag  1:
 RMSU=  2.28D-08    CP:  9.32D-01  1.31D+00  7.94D-01  7.86D-01  1.15D+00
                    CP:  1.13D+00  1.19D+00  1.11D+00  1.14D+00  1.09D+00
                    CP:  1.25D+00  1.22D+00
 E= -881.951915651755     Delta-E=       -0.000000000212 Rises=F Damp=F
 DIIS: error= 2.49D-07 at cycle  13 NSaved=  13.
 NSaved=13 IEnMin=13 EnMin= -881.951915651755     IErMin=13 ErrMin= 2.49D-07
 ErrMax= 2.49D-07  0.00D+00 EMaxC= 1.00D-01 BMatC= 2.19D-11 BMatP= 9.65D-11
 IDIUse=1 WtCom= 1.00D+00 WtEn= 0.00D+00
 Coeff-Com:  0.437D-05-0.945D-05-0.263D-04-0.320D-04-0.327D-04 0.573D-03
 Coeff-Com:  0.282D-02 0.222D-02-0.123D-01-0.420D-01-0.106D+00 0.297D+00
 Coeff-Com:  0.858D+00
 Coeff:      0.437D-05-0.945D-05-0.263D-04-0.320D-04-0.327D-04 0.573D-03
 Coeff:      0.282D-02 0.222D-02-0.123D-01-0.420D-01-0.106D+00 0.297D+00
 Coeff:      0.858D+00
 Gap=     0.229 Goal=   None    Shift=    0.000
 RMSDP=2.84D-08 MaxDP=9.12D-07 DE=-2.12D-10 OVMax= 5.43D-06

 Cycle  14  Pass 1  IDiag  1:
 RMSU=  8.90D-09    CP:  9.32D-01  1.31D+00  7.94D-01  7.86D-01  1.15D+00
                    CP:  1.13D+00  1.19D+00  1.11D+00  1.15D+00  1.11D+00
                    CP:  1.33D+00  1.46D+00  1.07D+00
 E= -881.951915651809     Delta-E=       -0.000000000053 Rises=F Damp=F
 DIIS: error= 5.45D-08 at cycle  14 NSaved=  14.
 NSaved=14 IEnMin=14 EnMin= -881.951915651809     IErMin=14 ErrMin= 5.45D-08
 ErrMax= 5.45D-08  0.00D+00 EMaxC= 1.00D-01 BMatC= 1.70D-12 BMatP= 2.19D-11
 IDIUse=1 WtCom= 1.00D+00 WtEn= 0.00D+00
 Coeff-Com: -0.114D-05 0.266D-05-0.634D-06-0.140D-04-0.133D-03-0.171D-04
 Coeff-Com:  0.939D-03 0.230D-02 0.846D-03-0.104D-01-0.510D-01-0.789D-02
 Coeff-Com:  0.206D+00 0.859D+00
 Coeff:     -0.114D-05 0.266D-05-0.634D-06-0.140D-04-0.133D-03-0.171D-04
 Coeff:      0.939D-03 0.230D-02 0.846D-03-0.104D-01-0.510D-01-0.789D-02
 Coeff:      0.206D+00 0.859D+00
 Gap=     0.229 Goal=   None    Shift=    0.000
 RMSDP=7.35D-09 MaxDP=2.15D-07 DE=-5.34D-11 OVMax= 1.67D-06

 Error on total polarization charges =  0.01285
 SCF Done:  E(RCAM-B3LYP) =  -881.951915652     A.U. after   14 cycles
            NFock= 14  Conv=0.74D-08     -V/T= 2.0031
 KE= 8.792278434038D+02 PE=-5.016406634489D+03 EE= 1.775663491236D+03
 Leave Link  502 at Thu Jan 30 16:28:23 2025, MaxMem= 25501368320 cpu:            1517.3 elap:              43.2
 (Enter /share/Apps/gaussian/g16/l801.exe)
 DoSCS=F DFT=T ScalE2(SS,OS)=  1.000000  1.000000
 ExpMin= 1.03D-01 ExpMax= 1.14D+04 ExpMxC= 1.72D+03 IAcc=3 IRadAn=         5 AccDes= 0.00D+00
 HarFok:  IExCor=  205 AccDes= 0.00D+00 IRadAn=         5 IDoV=-2 UseB2=F ITyADJ=14
 ICtDFT= 12500011 ScaDFX=  1.000000  1.000000  1.000000  1.000000
 Largest valence mixing into a core orbital is  5.15D-05
 Largest core mixing into a valence orbital is  1.82D-05
 Range of M.O.s used for correlation:    21   444
 NBasis=   444 NAE=    70 NBE=    70 NFC=    20 NFV=     0
 NROrb=    424 NOA=    50 NOB=    50 NVA=   374 NVB=   374

 **** Warning!!: The largest alpha MO coefficient is  0.12854353D+02

 Leave Link  801 at Thu Jan 30 16:28:23 2025, MaxMem= 25501368320 cpu:               7.3 elap:               0.3
 (Enter /share/Apps/gaussian/g16/l914.exe)
 RHF ground state
 Two-electron integrals replicated using symmetry.
 MDV= 25501368320 DFT=T DoStab=F Mixed=T DoRPA=T DoScal=F NonHer=T
 NEqPCM:  Using non-equilibrium solvation (IEInf=1, Eps=  35.6880, EpsInf=   1.8069)
 Inv3:  Mode=1 IEnd=    19907328.
 Iteration    1 A*A^-1 deviation from unit magnitude is 4.00D-15 for    987.
 Iteration    1 A*A^-1 deviation from orthogonality  is 1.82D-15 for   1864    875.
 Iteration    1 A^-1*A deviation from unit magnitude is 3.77D-15 for    987.
 Iteration    1 A^-1*A deviation from orthogonality  is 1.85D-15 for   2282   1863.
 Making orbital integer symmetry assigments:
 Orbital symmetries:
       Occupied  (A) (A) (A) (A) (A) (A) (A) (A) (A) (A) (A) (A)
                 (A) (A) (A) (A) (A) (A) (A) (A) (A) (A) (A) (A)
                 (A) (A) (A) (A) (A) (A) (A) (A) (A) (A) (A) (A)
                 (A) (A) (A) (A) (A) (A) (A) (A) (A) (A) (A) (A)
                 (A) (A) (A) (A) (A) (A) (A) (A) (A) (A) (A) (A)
                 (A) (A) (A) (A) (A) (A) (A) (A) (A) (A)
       Virtual   (A) (A) (A) (A) (A) (A) (A) (A) (A) (A) (A) (A)
                 (A) (A) (A) (A) (A) (A) (A) (A) (A) (A) (A) (A)
                 (A) (A) (A) (A) (A) (A) (A) (A) (A) (A) (A) (A)
                 (A) (A) (A) (A) (A) (A) (A) (A) (A) (A) (A) (A)
                 (A) (A) (A) (A) (A) (A) (A) (A) (A) (A) (A) (A)
                 (A) (A) (A) (A) (A) (A) (A) (A) (A) (A) (A) (A)
                 (A) (A) (A) (A) (A) (A) (A) (A) (A) (A) (A) (A)
                 (A) (A) (A) (A) (A) (A) (A) (A) (A) (A) (A) (A)
                 (A) (A) (A) (A) (A) (A) (A) (A) (A) (A) (A) (A)
                 (A) (A) (A) (A) (A) (A) (A) (A) (A) (A) (A) (A)
                 (A) (A) (A) (A) (A) (A) (A) (A) (A) (A) (A) (A)
                 (A) (A) (A) (A) (A) (A) (A) (A) (A) (A) (A) (A)
                 (A) (A) (A) (A) (A) (A) (A) (A) (A) (A) (A) (A)
                 (A) (A) (A) (A) (A) (A) (A) (A) (A) (A) (A) (A)
                 (A) (A) (A) (A) (A) (A) (A) (A) (A) (A) (A) (A)
                 (A) (A) (A) (A) (A) (A) (A) (A) (A) (A) (A) (A)
                 (A) (A) (A) (A) (A) (A) (A) (A) (A) (A) (A) (A)
                 (A) (A) (A) (A) (A) (A) (A) (A) (A) (A) (A) (A)
                 (A) (A) (A) (A) (A) (A) (A) (A) (A) (A) (A) (A)
                 (A) (A) (A) (A) (A) (A) (A) (A) (A) (A) (A) (A)
                 (A) (A) (A) (A) (A) (A) (A) (A) (A) (A) (A) (A)
                 (A) (A) (A) (A) (A) (A) (A) (A) (A) (A) (A) (A)
                 (A) (A) (A) (A) (A) (A) (A) (A) (A) (A) (A) (A)
                 (A) (A) (A) (A) (A) (A) (A) (A) (A) (A) (A) (A)
                 (A) (A) (A) (A) (A) (A) (A) (A) (A) (A) (A) (A)
                 (A) (A) (A) (A) (A) (A) (A) (A) (A) (A) (A) (A)
                 (A) (A) (A) (A) (A) (A) (A) (A) (A) (A) (A) (A)
                 (A) (A) (A) (A) (A) (A) (A) (A) (A) (A) (A) (A)
                 (A) (A) (A) (A) (A) (A) (A) (A) (A) (A) (A) (A)
                 (A) (A) (A) (A) (A) (A) (A) (A) (A) (A) (A) (A)
                 (A) (A) (A) (A) (A) (A) (A) (A) (A) (A) (A) (A)
                 (A) (A)
    80 initial guesses have been made.
 Convergence on wavefunction:    0.001000000000000
 Davidson Disk Diagonalization:  ConvIn= 1.00D-03 SkipCon=T Conv= 1.00D-03.
 Max sub-space:  2000 roots to seek:    80 dimension of matrix:        37400
 Iteration     1 Dimension    80 NMult     0 NNew     80
 CISAX will form    80 AO SS matrices at one time.
 NMat=    80 NSing=    80 JSym2X= 0.
 FoFJK:  IHMeth= 1 ICntrl=       0 DoSepK=T KAlg= 0 I1Cent=           0 FoldK=F
 IRaf=         1 NMat=     160 IRICut=       1 DoRegI=T DoRafI=F ISym2E= 0 IDoP0=3 IntGTp=3.
 New state      2 was old state      3
 New state      3 was old state      2
 New state      4 was old state      5
 New state      5 was old state      6
 New state      6 was old state      4
 New state      7 was old state     10
 New state      8 was old state      7
 New state     10 was old state     14
 New state     11 was old state     12
 New state     12 was old state      8
 New state     13 was old state     11
 New state     14 was old state     17
 New state     15 was old state     13
 New state     16 was old state     19
 New state     17 was old state     15
 New state     18 was old state     16
 New state     19 was old state     20
 New state     20 was old state     18
 Excitation Energies [eV] at current iteration:
 Root      1 :     3.034951077185206
 Root      2 :     4.522193977780290
 Root      3 :     4.802999860748826
 Root      4 :     4.913174573784075
 Root      5 :     5.163676608227165
 Root      6 :     5.280680748194826
 Root      7 :     5.346532713821750
 Root      8 :     5.642318370531655
 Root      9 :     6.012428893552674
 Root     10 :     6.124727948846618
 Root     11 :     6.175459629127380
 Root     12 :     6.276368790500757
 Root     13 :     6.467143630960082
 Root     14 :     6.553190401023082
 Root     15 :     6.627141068162858
 Root     16 :     6.710542676196631
 Root     17 :     6.824759550872515
 Root     18 :     6.914288529726872
 Root     19 :     7.176067963652573
 Root     20 :     7.248545181164713
 Root     21 :     7.299192875117259
 Root     22 :     7.327027875730708
 Root     23 :     7.425366364507767
 Root     24 :     7.481021979623114
 Root     25 :     7.537557048295473
 Root     26 :     7.604735941423053
 Root     27 :     7.666220912280537
 Root     28 :     7.715988452761777
 Root     29 :     7.771446005631015
 Root     30 :     7.884553842172547
 Root     31 :     7.962759367066810
 Root     32 :     8.015191992474103
 Root     33 :     8.039617215974181
 Root     34 :     8.088304287767050
 Root     35 :     8.109716503790757
 Root     36 :     8.160450846310612
 Root     37 :     8.229818244871764
 Root     38 :     8.307004877812124
 Root     39 :     8.372667428319046
 Root     40 :     8.422183493299530
 Root     41 :     8.457820161641397
 Root     42 :     8.494840601058968
 Root     43 :     8.508216672080167
 Root     44 :     8.570988619999174
 Root     45 :     8.590155955446079
 Root     46 :     8.643405261679156
 Root     47 :     8.692562270607505
 Root     48 :     8.729009444593476
 Root     49 :     8.741573439409336
 Root     50 :     8.774359475711687
 Root     51 :     8.841669751767689
 Root     52 :     8.864303341123289
 Root     53 :     8.890227464745577
 Root     54 :     8.934248595609761
 Root     55 :     8.950169128627872
 Root     56 :     8.965322957649368
 Root     57 :     9.007877896936865
 Root     58 :     9.055114366669969
 Root     59 :     9.128755577276420
 Root     60 :     9.170215835489165
 Root     61 :     9.211662143108573
 Root     62 :     9.264846242110252
 Root     63 :     9.282148825812275
 Root     64 :     9.349603829182557
 Root     65 :     9.387776707793524
 Root     66 :     9.470030664858017
 Root     67 :     9.514816517142554
 Root     68 :     9.561551290537295
 Root     69 :     9.628821312869071
 Root     70 :     9.647057839240153
 Root     71 :     9.681135504942022
 Root     72 :     9.725991764409084
 Root     73 :     9.765642345189747
 Root     74 :     9.806273170451099
 Root     75 :     9.821825364569273
 Root     76 :     9.900546750203121
 Root     77 :     9.960765295699852
 Root     78 :     9.969051042490594
 Root     79 :    10.007878290026822
 Root     80 :    10.101402820143067
 Iteration     2 Dimension   120 NMult    80 NNew     40
 CISAX will form    40 AO SS matrices at one time.
 NMat=    40 NSing=    40 JSym2X= 0.
 Root      1 not converged, maximum delta is    0.033396944873576
 Root      2 not converged, maximum delta is    0.091130964379547
 Root      3 not converged, maximum delta is    0.074835704750547
 Root      4 not converged, maximum delta is    0.157771518093990
 Root      5 not converged, maximum delta is    0.130766114847452
 Root      6 not converged, maximum delta is    0.219947191926848
 Root      7 not converged, maximum delta is    0.201588361233846
 Root      8 not converged, maximum delta is    0.089126075662765
 New state      9 was old state     11
 Root      9 not converged, maximum delta is    0.303369631391053
 New state     10 was old state      9
 Root     10 not converged, maximum delta is    0.272750937541168
 New state     11 was old state     10
 Root     11 not converged, maximum delta is    0.180006395890232
 Root     12 not converged, maximum delta is    0.405357188322839
 Root     13 not converged, maximum delta is    0.395861464016703
 New state     14 was old state     15
 Root     14 not converged, maximum delta is    0.309767002469629
 New state     15 was old state     14
 Root     15 not converged, maximum delta is    0.204925281001074
 Root     16 not converged, maximum delta is    0.155103651050324
 New state     17 was old state     19
 Root     17 not converged, maximum delta is    0.284374108583297
 Root     18 not converged, maximum delta is    0.307684882528319
 New state     19 was old state     17
 Root     19 not converged, maximum delta is    0.182387274726676
 Root     20 not converged, maximum delta is    0.339292797927589
 Excitation Energies [eV] at current iteration:
 Root      1 :     2.814435274110563   Change is   -0.220515803074643
 Root      2 :     4.143799875940496   Change is   -0.378394101839795
 Root      3 :     4.629059788771066   Change is   -0.173940071977760
 Root      4 :     4.800628110027967   Change is   -0.112546463756108
 Root      5 :     4.841439865094320   Change is   -0.322236743132845
 Root      6 :     5.045619756576208   Change is   -0.235060991618618
 Root      7 :     5.169823045414171   Change is   -0.176709668407579
 Root      8 :     5.537174654921845   Change is   -0.105143715609810
 Root      9 :     5.773372099528079   Change is   -0.402087529599300
 Root     10 :     5.893636298670898   Change is   -0.118792594881775
 Root     11 :     5.942602148083549   Change is   -0.182125800763069
 Root     12 :     6.086997451634683   Change is   -0.189371338866074
 Root     13 :     6.142911020181839   Change is   -0.324232610778243
 Root     14 :     6.366243733645238   Change is   -0.260897334517619
 Root     15 :     6.428675779393672   Change is   -0.124514621629409
 Root     16 :     6.513080680791647   Change is   -0.197461995404984
 Root     17 :     6.592210918366267   Change is   -0.583857045286307
 Root     18 :     6.713864998047917   Change is   -0.200423531678955
 Root     19 :     6.739876662691338   Change is   -0.084882888181177
 Root     20 :     6.887135668451121   Change is   -0.361409512713592
 Iteration     3 Dimension   160 NMult   120 NNew     40
 CISAX will form    40 AO SS matrices at one time.
 NMat=    40 NSing=    40 JSym2X= 0.
 Root      1 not converged, maximum delta is    0.002745673863690
 Root      2 not converged, maximum delta is    0.003911003807263
 Root      3 not converged, maximum delta is    0.003316929359804
 Root      4 not converged, maximum delta is    0.046588111657729
 Root      5 not converged, maximum delta is    0.059896817133086
 Root      6 not converged, maximum delta is    0.008612543001241
 Root      7 not converged, maximum delta is    0.006994605792357
 Root      8 not converged, maximum delta is    0.007264480812878
 Root      9 not converged, maximum delta is    0.010616479467855
 Root     10 not converged, maximum delta is    0.023306431804771
 Root     11 not converged, maximum delta is    0.020652525172689
 Root     12 not converged, maximum delta is    0.060104420822042
 Root     13 not converged, maximum delta is    0.070344044978956
 Root     14 not converged, maximum delta is    0.023999335394186
 Root     15 not converged, maximum delta is    0.027937821852530
 Root     16 not converged, maximum delta is    0.047717597769008
 Root     17 not converged, maximum delta is    0.045383937895926
 Root     18 not converged, maximum delta is    0.103972739185284
 Root     19 not converged, maximum delta is    0.059895055161825
 Root     20 not converged, maximum delta is    0.052513831448255
 Excitation Energies [eV] at current iteration:
 Root      1 :     2.807861285665057   Change is   -0.006573988445505
 Root      2 :     4.125726667394254   Change is   -0.018073208546242
 Root      3 :     4.622690911347950   Change is   -0.006368877423116
 Root      4 :     4.795111267130206   Change is   -0.005516842897761
 Root      5 :     4.827687833464229   Change is   -0.013752031630091
 Root      6 :     5.033905240714780   Change is   -0.011714515861428
 Root      7 :     5.164823062384825   Change is   -0.004999983029345
 Root      8 :     5.531043111636065   Change is   -0.006131543285779
 Root      9 :     5.758708702252527   Change is   -0.014663397275553
 Root     10 :     5.883467992310629   Change is   -0.010168306360269
 Root     11 :     5.934181515673854   Change is   -0.008420632409696
 Root     12 :     6.071396691222362   Change is   -0.015600760412321
 Root     13 :     6.122421129864267   Change is   -0.020489890317572
 Root     14 :     6.350325204744233   Change is   -0.015918528901005
 Root     15 :     6.413254993210406   Change is   -0.015420786183267
 Root     16 :     6.500941803079935   Change is   -0.012138877711712
 Root     17 :     6.558782669428051   Change is   -0.033428248938216
 Root     18 :     6.697508722354543   Change is   -0.016356275693373
 Root     19 :     6.734239791478660   Change is   -0.005636871212678
 Root     20 :     6.847825636695344   Change is   -0.039310031755777
 Iteration     4 Dimension   200 NMult   160 NNew     40
 CISAX will form    40 AO SS matrices at one time.
 NMat=    40 NSing=    40 JSym2X= 0.
 Root      1 has converged.
 Root      2 has converged.
 Root      3 has converged.
 Root      4 not converged, maximum delta is    0.002374401499740
 Root      5 not converged, maximum delta is    0.002982902500016
 Root      6 has converged.
 Root      7 has converged.
 Root      8 has converged.
 Root      9 not converged, maximum delta is    0.001218923511145
 Root     10 not converged, maximum delta is    0.001411397648523
 Root     11 not converged, maximum delta is    0.001499867078338
 Root     12 not converged, maximum delta is    0.005058576560849
 Root     13 not converged, maximum delta is    0.005816654987929
 Root     14 not converged, maximum delta is    0.001868001992329
 Root     15 not converged, maximum delta is    0.002520209878871
 Root     16 not converged, maximum delta is    0.005551679128276
 Root     17 not converged, maximum delta is    0.005788092605940
 Root     18 not converged, maximum delta is    0.009512379494176
 Root     19 not converged, maximum delta is    0.005033102379972
 Root     20 not converged, maximum delta is    0.007122879907780
 Excitation Energies [eV] at current iteration:
 Root      1 :     2.807601490328636   Change is   -0.000259795336422
 Root      2 :     4.124834215153929   Change is   -0.000892452240325
 Root      3 :     4.622407537688558   Change is   -0.000283373659391
 Root      4 :     4.794866919494597   Change is   -0.000244347635610
 Root      5 :     4.827129138372909   Change is   -0.000558695091320
 Root      6 :     5.033363994735431   Change is   -0.000541245979349
 Root      7 :     5.164544701211228   Change is   -0.000278361173597
 Root      8 :     5.530740768078690   Change is   -0.000302343557375
 Root      9 :     5.757704002372747   Change is   -0.001004699879780
 Root     10 :     5.882882864878543   Change is   -0.000585127432086
 Root     11 :     5.933608388287511   Change is   -0.000573127386342
 Root     12 :     6.070361009993653   Change is   -0.001035681228709
 Root     13 :     6.121087025336089   Change is   -0.001334104528178
 Root     14 :     6.349358338856393   Change is   -0.000966865887840
 Root     15 :     6.412173589431606   Change is   -0.001081403778799
 Root     16 :     6.499806220739384   Change is   -0.001135582340552
 Root     17 :     6.555402879714246   Change is   -0.003379789713804
 Root     18 :     6.695726674753710   Change is   -0.001782047600834
 Root     19 :     6.733776806768727   Change is   -0.000462984709933
 Root     20 :     6.844001897169303   Change is   -0.003823739526041
 Iteration     5 Dimension   228 NMult   200 NNew     28
 CISAX will form    28 AO SS matrices at one time.
 NMat=    28 NSing=    28 JSym2X= 0.
 Root      1 has converged.
 Root      2 has converged.
 Root      3 has converged.
 Root      4 has converged.
 Root      5 has converged.
 Root      6 has converged.
 Root      7 has converged.
 Root      8 has converged.
 Root      9 has converged.
 Root     10 has converged.
 Root     11 has converged.
 Root     12 has converged.
 Root     13 has converged.
 Root     14 has converged.
 Root     15 has converged.
 Root     16 has converged.
 Root     17 has converged.
 Root     18 has converged.
 Root     19 has converged.
 Root     20 not converged, maximum delta is    0.002343427209049
 Excitation Energies [eV] at current iteration:
 Root      1 :     2.807599359610667   Change is   -0.000002130717969
 Root      2 :     4.124819987601413   Change is   -0.000014227552517
 Root      3 :     4.622403988364262   Change is   -0.000003549324296
 Root      4 :     4.794860047304622   Change is   -0.000006872189975
 Root      5 :     4.827113424907170   Change is   -0.000015713465739
 Root      6 :     5.033350818484269   Change is   -0.000013176251162
 Root      7 :     5.164540532426366   Change is   -0.000004168784863
 Root      8 :     5.530735482841725   Change is   -0.000005285236966
 Root      9 :     5.757658579942460   Change is   -0.000045422430286
 Root     10 :     5.882857075087395   Change is   -0.000025789791148
 Root     11 :     5.933584351838010   Change is   -0.000024036449502
 Root     12 :     6.070317541310695   Change is   -0.000043468682958
 Root     13 :     6.121025780485861   Change is   -0.000061244850227
 Root     14 :     6.349312853462990   Change is   -0.000045485393403
 Root     15 :     6.412119476614877   Change is   -0.000054112816729
 Root     16 :     6.499722002045982   Change is   -0.000084218693401
 Root     17 :     6.555192756973130   Change is   -0.000210122741116
 Root     18 :     6.695616219505197   Change is   -0.000110455248513
 Root     19 :     6.733747519680324   Change is   -0.000029287088403
 Root     20 :     6.843724561258894   Change is   -0.000277335910408
 Iteration     6 Dimension   230 NMult   228 NNew      2
 CISAX will form     2 AO SS matrices at one time.
 NMat=     2 NSing=     2 JSym2X= 0.
 Root      1 has converged.
 Root      2 has converged.
 Root      3 has converged.
 Root      4 has converged.
 Root      5 has converged.
 Root      6 has converged.
 Root      7 has converged.
 Root      8 has converged.
 Root      9 has converged.
 Root     10 has converged.
 Root     11 has converged.
 Root     12 has converged.
 Root     13 has converged.
 Root     14 has converged.
 Root     15 has converged.
 Root     16 has converged.
 Root     17 has converged.
 Root     18 has converged.
 Root     19 has converged.
 Root     20 has converged.
 Excitation Energies [eV] at current iteration:
 Root      1 :     2.807599350916860   Change is   -0.000000008693807
 Root      2 :     4.124819920627225   Change is   -0.000000066974188
 Root      3 :     4.622403953642181   Change is   -0.000000034722082
 Root      4 :     4.794860040788401   Change is   -0.000000006516220
 Root      5 :     4.827113403182024   Change is   -0.000000021725146
 Root      6 :     5.033350710385081   Change is   -0.000000108099188
 Root      7 :     5.164540467211096   Change is   -0.000000065215270
 Root      8 :     5.530735468739347   Change is   -0.000000014102377
 Root      9 :     5.757658516132224   Change is   -0.000000063810236
 Root     10 :     5.882857054368432   Change is   -0.000000020718963
 Root     11 :     5.933584340340178   Change is   -0.000000011497832
 Root     12 :     6.070317529881089   Change is   -0.000000011429606
 Root     13 :     6.121025673495102   Change is   -0.000000106990759
 Root     14 :     6.349312826507012   Change is   -0.000000026955978
 Root     15 :     6.412118094818444   Change is   -0.000001381796433
 Root     16 :     6.499721778398808   Change is   -0.000000223647174
 Root     17 :     6.555189945367639   Change is   -0.000002811605492
 Root     18 :     6.695615205108344   Change is   -0.000001014396854
 Root     19 :     6.733747476596001   Change is   -0.000000043084323
 Root     20 :     6.843699114126543   Change is   -0.000025447132352
 Convergence achieved on expansion vectors.
 ***********************************************************************
 Excited states from <AA,BB:AA,BB> singles matrix:
 ***********************************************************************
 
 1PDM for each excited state written to RWF  633
 Ground to excited state transition densities written to RWF  633
 Ground to excited state transition electric dipole moments (Au):
       state          X           Y           Z        Dip. S.      Osc.
         1        -1.0319      0.2453     -0.1733      1.1551      0.0795
         2        -1.7184      0.6865      0.1667      3.4521      0.3489
         3        -0.5391      0.0969      0.0888      0.3079      0.0349
         4        -0.3811      0.1606      0.0929      0.1797      0.0211
         5         0.0241     -0.2018      0.5566      0.3511      0.0415
         6        -0.9874     -0.8942      0.1956      1.8127      0.2235
         7         0.4006     -0.4608     -0.0324      0.3738      0.0473
         8        -0.1549     -0.1719      0.2744      0.1288      0.0175
         9        -0.3219     -0.6730     -0.0732      0.5619      0.0793
        10         0.1132      0.9087      0.1766      0.8698      0.1254
        11        -0.1509      0.2929      0.2867      0.1907      0.0277
        12         0.0210      1.1105     -0.0398      1.2353      0.1837
        13         0.2141      0.9505     -0.1110      0.9617      0.1442
        14        -0.7942     -0.3211      0.6035      1.0980      0.1708
        15        -0.9609     -0.4641      0.0513      1.1414      0.1793
        16         0.0430      0.3529     -0.0663      0.1308      0.0208
        17         0.5647      0.2127      0.3550      0.4901      0.0787
        18        -0.1401      0.1383     -0.3073      0.1332      0.0218
        19         0.0967      0.0014     -0.0081      0.0094      0.0016
        20        -1.4676     -0.3179      0.1949      2.2929      0.3844
 Ground to excited state transition velocity dipole moments (Au):
       state          X           Y           Z        Dip. S.      Osc.
         1         0.1056     -0.0301      0.0294      0.0129      0.0835
         2         0.2541     -0.0996     -0.0253      0.0751      0.3304
         3         0.0907     -0.0203     -0.0171      0.0089      0.0350
         4         0.0672     -0.0265     -0.0188      0.0056      0.0211
         5        -0.0010      0.0356     -0.1015      0.0116      0.0435
         6         0.1828      0.1588     -0.0400      0.0602      0.2170
         7        -0.0766      0.0849      0.0056      0.0131      0.0460
         8         0.0317      0.0353     -0.0552      0.0053      0.0174
         9         0.0748      0.1421      0.0133      0.0260      0.0818
        10        -0.0220     -0.1971     -0.0391      0.0409      0.1260
        11         0.0344     -0.0646     -0.0625      0.0093      0.0283
        12        -0.0011     -0.2457      0.0062      0.0604      0.1806
        13        -0.0462     -0.2107      0.0183      0.0469      0.1389
        14         0.1811      0.0761     -0.1441      0.0593      0.1696
        15         0.2241      0.1093     -0.0106      0.0623      0.1761
        16        -0.0099     -0.0808      0.0162      0.0069      0.0192
        17        -0.1329     -0.0500     -0.0845      0.0273      0.0756
        18         0.0346     -0.0312      0.0741      0.0077      0.0208
        19        -0.0242      0.0017      0.0058      0.0006      0.0017
        20         0.3704      0.0804     -0.0474      0.1459      0.3868
 Ground to excited state transition magnetic dipole moments (Au):
       state          X           Y           Z
         1        -1.1425     -0.0775      0.6023
         2         0.5268     -0.5280      1.5564
         3         0.1627     -0.1418      0.6379
         4         0.0463      0.2755      0.6296
         5        -0.0950      0.5992     -1.2583
         6        -0.0771     -0.4775     -0.5231
         7         0.0628      0.1351     -0.2636
         8        -0.0097      0.5958     -0.2290
         9         0.1596     -0.1464     -0.1950
        10        -0.0196      0.6461      0.4099
        11        -0.3924      0.1656     -0.5903
        12        -0.3124      0.2614      0.4992
        13        -0.1804      0.1650      0.0535
        14         0.4788      0.7081      0.4844
        15        -0.1774     -0.5494     -0.2501
        16         0.1952     -0.2446      0.2166
        17        -0.1517      0.3426     -1.3281
        18         0.1261     -0.1008      0.5894
        19        -0.1583     -0.3337      0.3620
        20        -0.4267     -0.8961     -0.1790
 Ground to excited state transition velocity quadrupole moments (Au):
       state          XX          YY          ZZ          XY          XZ          YZ
         1         0.0789      0.0152     -0.0857     -0.0772      0.0544     -0.0861
         2        -0.1835     -0.3023      0.1552     -0.1695      0.1345      0.3431
         3        -0.1291     -0.0107      0.0263      0.1525      0.0759      0.0105
         4         0.8492     -0.1802     -0.0209     -0.0399     -0.2565      0.1130
         5        -0.9614      0.3802     -0.0608     -0.2756     -0.2174     -0.0048
         6        -0.2731     -0.1071      0.0955     -0.3557      0.1619     -0.0970
         7         0.4065      0.2670     -0.0366     -0.3079     -0.1099     -0.0354
         8         0.2659      0.1279     -0.0440     -0.1731     -0.2448      0.0649
         9         0.7654     -0.3213      0.0737      0.1669      0.0623     -0.1817
        10         0.8602     -0.5202     -0.0368      0.4886     -0.4608      0.2591
        11        -0.1086     -0.1101     -0.0536      0.2671     -0.2430     -0.0461
        12         0.8468     -1.0331      0.1016      0.8274     -0.2629      0.1547
        13         0.6916     -0.8909     -0.0231      1.0127     -0.1731     -0.0040
        14         0.5468      0.2314     -0.0698     -0.5464     -0.5821      0.1728
        15        -0.8827      0.3654      0.1299      0.2715      0.4248     -0.2959
        16        -0.5585     -0.3393      0.0624      0.2809      0.2335     -0.0010
        17        -1.2807      0.6970     -0.0730     -0.0764     -0.3381     -0.1222
        18         1.2963     -0.6052      0.0435      0.1580      0.0579      0.2301
        19         0.6291     -0.3363     -0.0311     -0.0389      0.0598     -0.1432
        20        -0.2921     -0.1335      0.2046      0.9184      0.3888     -0.3516
 <0|del|b> * <b|rxdel|0> + <0|del|b> * <b|delr+rdel|0>
 Rotatory Strengths (R) in cgs (10**-40 erg-esu-cm/Gauss)
       state          XX          YY          ZZ    R(velocity)    E-M Angle
         1        66.6032   -375.9992   -379.8761   -229.7573      133.13
         2        72.0799    413.8550    200.3009    228.7453       71.88
         3       -18.8911     15.4260     31.5262      9.3537       83.92
         4       -50.5204     -3.7979    -10.0006    -21.4396      108.17
         5       368.3996    199.0956     27.2772    198.2574        6.99
         6      -126.8398    -48.0038    -88.8341    -87.8926      113.24
         7        32.8042     -3.4511    -10.0158      6.4458       81.39
         8        90.1825      8.4141     17.4044     38.6670       44.16
         9       -50.1937    -10.8291     22.6883    -12.7782      104.14
        10      -414.3584     -3.5747    -49.7053   -155.8795      157.50
        11       -10.0761     62.3583    -11.2253     13.6856       79.59
        12      -191.0719     -2.9727      1.3801    -64.2215      112.57
        13       -81.2604    -14.2269     15.5138    -26.6578      118.00
        14       162.2460    -46.1781     98.5035     71.5238       72.79
        15      -160.0967   -150.8500     19.4110    -97.1786      128.23
        16        69.0990     -4.3777     -1.5490     21.0574       47.51
        17       124.2581    208.7232      5.4261    112.8025       59.64
        18        86.7104     63.6683     -3.2528     49.0420       16.89
        19         1.7233     13.7216     -0.1372      5.1026       65.43
        20      -194.5367   -332.2351    -96.4536   -207.7418      125.12
 1/2[<0|r|b>*<b|rxdel|0> + (<0|rxdel|b>*<b|r|0>)*]
 Rotatory Strengths (R) in cgs (10**-40 erg-esu-cm/Gauss)
       state          XX          YY          ZZ     R(length)
         1      -833.7113     13.4479     73.7932   -248.8234
         2       640.2025    256.3166   -183.5043    237.6716
         3        62.0435      9.7199    -40.0351     10.5761
         4        12.4909    -31.2799    -41.3846    -20.0578
         5         1.6210     85.5335    495.2672    194.1406
         6       -53.8175   -301.9384     72.3549    -94.4670
         7       -17.7942     44.0293     -6.0470      6.7294
         8        -1.0635     72.4150     44.4324     38.5947
         9        36.3348    -69.6771    -10.0930    -14.4784
        10         1.5717   -415.1900    -51.1915   -154.9366
        11       -41.8607    -34.3072    119.6672     14.4998
        12         4.6314   -205.2808     14.0510    -62.1995
        13        27.3124   -110.8898      4.2026    -26.4582
        14       268.9166    160.8061   -206.7182     74.3348
        15      -120.5261   -180.3318      9.0820    -97.2586
        16        -5.9363     61.0471     10.1592     21.7567
        17        60.5707    -51.5338    333.4087    114.1486
        18        12.4855      9.8595    128.1090     50.1513
        19        10.8252      0.3272      2.0778      4.4101
        20      -442.8077   -201.4542     24.6730   -206.5296
  1/2[<0|del|b>*<b|r|0> + (<0|r|b>*<b|del|0>)*] (Au)
       state          X           Y           Z        Dip. S.   Osc.(frdel)
         1        -0.1090     -0.0074     -0.0051      0.1215      0.0810
         2        -0.4367     -0.0684     -0.0042      0.5092      0.3395
         3        -0.0489     -0.0020     -0.0015      0.0524      0.0349
         4        -0.0256     -0.0042     -0.0017      0.0316      0.0211
         5        -0.0000     -0.0072     -0.0565      0.0637      0.0425
         6        -0.1804     -0.1419     -0.0078      0.3302      0.2201
         7        -0.0307     -0.0391     -0.0002      0.0700      0.0467
         8        -0.0049     -0.0061     -0.0152      0.0261      0.0174
         9        -0.0241     -0.0956     -0.0010      0.1207      0.0805
        10        -0.0025     -0.1791     -0.0069      0.1885      0.1257
        11        -0.0052     -0.0189     -0.0179      0.0420      0.0280
        12        -0.0000     -0.2729     -0.0002      0.2732      0.1821
        13        -0.0099     -0.2003     -0.0020      0.2122      0.1415
        14        -0.1438     -0.0244     -0.0869      0.2552      0.1701
        15        -0.2153     -0.0507     -0.0005      0.2666      0.1777
        16        -0.0004     -0.0285     -0.0011      0.0300      0.0200
        17        -0.0751     -0.0106     -0.0300      0.1157      0.0771
        18        -0.0048     -0.0043     -0.0228      0.0319      0.0213
        19        -0.0023      0.0000     -0.0000      0.0024      0.0016
        20        -0.5436     -0.0256     -0.0092      0.5784      0.3856

 Excitation energies and oscillator strengths:
 
 Excited State   1:      Singlet-A      2.8076 eV  441.60 nm  f=0.0795  <S**2>=0.000
      67 -> 71        -0.23576
      68 -> 71         0.26666
      69 -> 71         0.21298
      70 -> 71         0.55093
 This state for optimization and/or second-order correction.
 Total Energy, E(TD-HF/TD-DFT) =  -881.848738274    
 Copying the excited state density for this state as the 1-particle RhoCI density.
 
 Excited State   2:      Singlet-A      4.1248 eV  300.58 nm  f=0.3489  <S**2>=0.000
      67 -> 71         0.24471
      68 -> 71        -0.37993
      69 -> 71        -0.28175
      70 -> 71         0.42074
 
 Excited State   3:      Singlet-A      4.6224 eV  268.22 nm  f=0.0349  <S**2>=0.000
      67 -> 71         0.15782
      68 -> 71        -0.23768
      68 -> 73         0.11775
      69 -> 71         0.47451
      70 -> 72         0.34589
      70 -> 73        -0.17602
 
 Excited State   4:      Singlet-A      4.7949 eV  258.58 nm  f=0.0211  <S**2>=0.000
      66 -> 71        -0.13796
      67 -> 71         0.23812
      68 -> 71         0.11337
      68 -> 72         0.10594
      69 -> 72         0.17678
      70 -> 72         0.16095
      70 -> 73         0.53996
 
 Excited State   5:      Singlet-A      4.8271 eV  256.85 nm  f=0.0415  <S**2>=0.000
      66 -> 71        -0.15131
      67 -> 71        -0.37416
      69 -> 71        -0.26882
      69 -> 73         0.11083
      70 -> 72         0.44598
 
 Excited State   6:      Singlet-A      5.0334 eV  246.33 nm  f=0.2235  <S**2>=0.000
      66 -> 71         0.10825
      67 -> 71         0.32390
      68 -> 71         0.39442
      69 -> 71        -0.20434
      70 -> 72         0.24289
      70 -> 73        -0.28527
 
 Excited State   7:      Singlet-A      5.1645 eV  240.07 nm  f=0.0473  <S**2>=0.000
      65 -> 71         0.13810
      68 -> 72         0.27578
      68 -> 73        -0.15582
      69 -> 71         0.12030
      69 -> 72        -0.23932
      69 -> 73         0.39030
      69 -> 75        -0.13562
      70 -> 74        -0.20788
      70 -> 75         0.22415
 
 Excited State   8:      Singlet-A      5.5307 eV  224.17 nm  f=0.0175  <S**2>=0.000
      66 -> 71         0.52541
      67 -> 72        -0.15307
      67 -> 73        -0.14176
      69 -> 72        -0.12564
      70 -> 72         0.23014
      70 -> 73         0.24447
 
 Excited State   9:      Singlet-A      5.7577 eV  215.34 nm  f=0.0793  <S**2>=0.000
      66 -> 72         0.11156
      68 -> 73         0.14622
      68 -> 74         0.14736
      69 -> 73         0.13632
      69 -> 74         0.12050
      70 -> 74         0.54029
      70 -> 75         0.25258
 
 Excited State  10:      Singlet-A      5.8829 eV  210.76 nm  f=0.1254  <S**2>=0.000
      66 -> 71         0.22407
      68 -> 72         0.36134
      69 -> 72         0.49123
      70 -> 73        -0.12294
      70 -> 75         0.10186
 
 Excited State  11:      Singlet-A      5.9336 eV  208.95 nm  f=0.0277  <S**2>=0.000
      65 -> 71         0.18627
      66 -> 71         0.17440
      68 -> 71        -0.10940
      68 -> 73         0.47072
      69 -> 73         0.24274
      69 -> 74        -0.12749
      70 -> 72        -0.13415
      70 -> 75        -0.17112
 
 Excited State  12:      Singlet-A      6.0703 eV  204.25 nm  f=0.1837  <S**2>=0.000
      65 -> 71        -0.25979
      67 -> 73        -0.14092
      68 -> 72        -0.15284
      68 -> 73         0.26695
      68 -> 74         0.10616
      70 -> 74        -0.26109
      70 -> 75         0.44276
 
 Excited State  13:      Singlet-A      6.1210 eV  202.55 nm  f=0.1442  <S**2>=0.000
      65 -> 71         0.35187
      67 -> 72         0.24702
      67 -> 73         0.19543
      68 -> 72        -0.26081
      68 -> 73        -0.13515
      69 -> 72         0.10245
      69 -> 73        -0.19745
      70 -> 75         0.26397
 
 Excited State  14:      Singlet-A      6.3493 eV  195.27 nm  f=0.1708  <S**2>=0.000
      65 -> 71        -0.34582
      66 -> 71         0.22601
      66 -> 74        -0.10830
      67 -> 72         0.36664
      67 -> 73         0.25923
      68 -> 74         0.13604
      69 -> 73         0.13248
      69 -> 74         0.11345
      70 -> 75        -0.11498
 
 Excited State  15:      Singlet-A      6.4121 eV  193.36 nm  f=0.1793  <S**2>=0.000
      66 -> 72        -0.13871
      67 -> 73        -0.19846
      68 -> 72        -0.33564
      68 -> 73        -0.15350
      69 -> 72         0.26355
[...]
    23  H    0.000004  -0.000000   0.009163  -0.034610  -0.002561   0.420048
    24  H    0.000004  -0.000000   0.007465  -0.001484  -0.030174   0.009134
    25  N    0.000005  -0.000169  -0.000011   0.000001   0.000063   0.000000
    26  C   -0.000000  -0.000031  -0.000001  -0.000000  -0.000001   0.000000
    27  H   -0.000000   0.000006   0.000000   0.000000  -0.000004  -0.000000
    28  H    0.000000  -0.000001  -0.000000   0.000000   0.000001   0.000000
    29  H    0.000000  -0.000001   0.000000  -0.000000  -0.000001  -0.000000
    30  C   -0.000000   0.000000   0.000023  -0.000001   0.000009   0.000000
    31  H    0.000000   0.000000   0.000007  -0.000000  -0.000006  -0.000000
    32  H   -0.000000   0.000000   0.000280  -0.000023  -0.000022   0.000000
    33  H    0.000000  -0.000000  -0.000024   0.000000   0.000058   0.000000
    34  F   -0.000003   0.000000  -0.000967   0.007090   0.007238  -0.061903
              19         20         21         22         23         24
     1  N   -0.000198   0.000070   0.001432  -0.000016   0.000008   0.000016
     2  N    0.008869   0.008456  -0.008746  -0.000508  -0.000133  -0.000123
     3  C    0.000442  -0.003052   0.007818   0.000028  -0.000004   0.000023
     4  C   -0.000192   0.000630  -0.001351   0.000012   0.000010  -0.000002
     5  C   -0.000024  -0.000013  -0.000724  -0.000001  -0.000000  -0.000002
     6  C    0.000011  -0.000035   0.000125   0.000004   0.000000  -0.000005
     7  C   -0.000033   0.002519  -0.001097  -0.000936   0.000056   0.000191
     8  C    0.000000   0.000006   0.000038  -0.000001   0.000000  -0.000001
     9  C    0.000004   0.000222  -0.000023  -0.000083  -0.000002   0.000062
    10  H    0.000430  -0.002331   0.000208   0.000748   0.000008   0.000002
    11  C   -0.000001  -0.000011   0.000007   0.000013  -0.000000  -0.000005
    12  H    0.000000  -0.000000   0.000002  -0.000000   0.000000   0.000000
    13  H    0.000001   0.000081   0.000001   0.000071   0.000004   0.000004
    14  H   -0.000000  -0.000001  -0.000000  -0.000000  -0.000000  -0.000000
    15  C   -0.062887  -0.016669  -0.050401  -0.062348   0.009163   0.007465
    16  C    0.421190  -0.051450   0.006929  -0.014450  -0.034610  -0.001484
    17  C    0.011460   0.358935   0.425325  -0.006855  -0.002561  -0.030174
    18  C   -0.029917  -0.032913  -0.001045   0.430921   0.420048   0.009134
    19  H    0.529577  -0.002337  -0.000073   0.007479  -0.008050   0.000064
    20  C   -0.002337   5.098234  -0.028029   0.430007   0.010019   0.415267
    21  H   -0.000073  -0.028029   0.508979   0.006243   0.000037  -0.006975
    22  C    0.007479   0.430007   0.006243   4.763246  -0.048409  -0.046923
    23  H   -0.008050   0.010019   0.000037  -0.048409   0.516656  -0.000200
    24  H    0.000064   0.415267  -0.006975  -0.046923  -0.000200   0.516027
    25  N    0.000000   0.000004  -0.000005  -0.000000   0.000000   0.000000
    26  C   -0.000000   0.000000  -0.000013   0.000000   0.000000   0.000000
    27  H    0.000000  -0.000000   0.000003   0.000000  -0.000000  -0.000000
    28  H   -0.000000   0.000000  -0.000000  -0.000000   0.000000   0.000000
    29  H    0.000000  -0.000000  -0.000000   0.000000  -0.000000   0.000000
    30  C   -0.000000   0.000002   0.000058   0.000000  -0.000000  -0.000000
    31  H    0.000000  -0.000000   0.000002   0.000000  -0.000000  -0.000000
    32  H   -0.000007   0.000003  -0.000065   0.000000  -0.000000  -0.000000
    33  H   -0.000000   0.000002  -0.000035  -0.000000   0.000000   0.000000
    34  F   -0.000060  -0.060988  -0.000066   0.323963   0.000472   0.000607
              25         26         27         28         29         30
     1  N    0.001907  -0.000045  -0.000002   0.000009  -0.000005  -0.001918
     2  N   -0.000054   0.000004  -0.000001   0.000000   0.000000   0.000034
     3  C   -0.060319   0.008576  -0.000746   0.000261   0.000951  -0.069220
     4  C   -0.051107   0.007136   0.000999   0.000090  -0.000794   0.014733
     5  C    0.438908  -0.061927   0.005332   0.001730  -0.015393   0.323627
     6  C    0.398079  -0.066245  -0.008807  -0.003017   0.006823   0.002520
     7  C    0.007063  -0.000167   0.000043  -0.000044   0.000008   0.000146
     8  C   -0.053493  -0.005619   0.001326   0.001469   0.000194  -0.000184
     9  C    0.000043   0.000019  -0.000047  -0.000010   0.000000  -0.000003
    10  H   -0.000069   0.000016   0.000001  -0.000001  -0.000001  -0.000003
    11  C    0.004533  -0.000042   0.000229  -0.000064   0.000016   0.000011
    12  H   -0.005609   0.003303  -0.000788  -0.000118   0.000004  -0.000019
    13  H    0.000005  -0.000000  -0.000000   0.000000   0.000000  -0.000000
    14  H   -0.000169  -0.000031   0.000006  -0.000001  -0.000001   0.000000
    15  C   -0.000011  -0.000001   0.000000  -0.000000   0.000000   0.000023
    16  C    0.000001  -0.000000   0.000000   0.000000  -0.000000  -0.000001
    17  C    0.000063  -0.000001  -0.000004   0.000001  -0.000001   0.000009
    18  C    0.000000   0.000000  -0.000000   0.000000  -0.000000   0.000000
    19  H    0.000000  -0.000000   0.000000  -0.000000   0.000000  -0.000000
    20  C    0.000004   0.000000  -0.000000   0.000000  -0.000000   0.000002
    21  H   -0.000005  -0.000013   0.000003  -0.000000  -0.000000   0.000058
    22  C   -0.000000   0.000000   0.000000  -0.000000   0.000000   0.000000
    23  H    0.000000   0.000000  -0.000000   0.000000  -0.000000  -0.000000
    24  H    0.000000   0.000000  -0.000000   0.000000   0.000000  -0.000000
    25  N    6.631557   0.289898  -0.030816  -0.037273  -0.016671  -0.047517
    26  C    0.289898   4.782087   0.409042   0.410355   0.407263  -0.006160
    27  H   -0.030816   0.409042   0.532390  -0.034519  -0.021507   0.000202
    28  H   -0.037273   0.410355  -0.034519   0.533135  -0.022546  -0.000318
    29  H   -0.016671   0.407263  -0.021507  -0.022546   0.510427   0.003504
    30  C   -0.047517  -0.006160   0.000202  -0.000318   0.003504   4.828635
    31  H   -0.003637  -0.000460   0.000187  -0.000208  -0.001677   0.413992
    32  H    0.004213   0.000418  -0.000002  -0.000030   0.000231   0.407343
    33  H   -0.001683  -0.000655   0.000008   0.000016  -0.000294   0.404396
    34  F    0.000000  -0.000000  -0.000000   0.000000  -0.000000  -0.000000
              31         32         33         34
     1  N    0.000068   0.026732  -0.000280  -0.000000
     2  N   -0.000038  -0.002016   0.000152  -0.000000
     3  C    0.002835  -0.018070   0.000862  -0.000000
     4  C    0.000834   0.004387  -0.000849  -0.000000
     5  C   -0.044000  -0.031572  -0.035852  -0.000000
     6  C   -0.000950  -0.000929   0.000020  -0.000000
     7  C    0.000038   0.000067  -0.000008  -0.000005
     8  C   -0.000036  -0.000004   0.000020  -0.000000
     9  C   -0.000002  -0.000001   0.000000   0.000002
    10  H    0.000001   0.000003  -0.000001  -0.000028
    11  C    0.000000   0.000001  -0.000001   0.000000
    12  H   -0.000005  -0.000001   0.000000   0.000000
    13  H    0.000000  -0.000000   0.000000  -0.000003
    14  H    0.000000   0.000000  -0.000000   0.000000
    15  C    0.000007   0.000280  -0.000024  -0.000967
    16  C   -0.000000  -0.000023   0.000000   0.007090
    17  C   -0.000006  -0.000022   0.000058   0.007238
    18  C   -0.000000   0.000000   0.000000  -0.061903
    19  H    0.000000  -0.000007  -0.000000  -0.000060
    20  C   -0.000000   0.000003   0.000002  -0.060988
    21  H    0.000002  -0.000065  -0.000035  -0.000066
    22  C    0.000000   0.000000  -0.000000   0.323963
    23  H   -0.000000  -0.000000   0.000000   0.000472
    24  H   -0.000000  -0.000000   0.000000   0.000607
    25  N   -0.003637   0.004213  -0.001683   0.000000
    26  C   -0.000460   0.000418  -0.000655  -0.000000
    27  H    0.000187  -0.000002   0.000008  -0.000000
    28  H   -0.000208  -0.000030   0.000016   0.000000
    29  H   -0.001677   0.000231  -0.000294  -0.000000
    30  C    0.413992   0.407343   0.404396  -0.000000
    31  H    0.533719  -0.017626  -0.029447   0.000000
    32  H   -0.017626   0.510832  -0.021524   0.000000
    33  H   -0.029447  -0.021524   0.533226  -0.000000
    34  F    0.000000   0.000000  -0.000000   9.022594
 Mulliken charges:
               1
     1  N   -0.186002
     2  N   -0.201285
     3  C   -0.122651
     4  C   -0.056414
     5  C    0.236540
     6  C    0.201193
     7  C   -0.060656
     8  C   -0.084453
     9  C   -0.139901
    10  H    0.127738
    11  C   -0.131188
    12  H    0.129797
    13  H    0.114747
    14  H    0.118218
    15  C   -0.066257
    16  C   -0.074138
    17  C   -0.035417
    18  C   -0.128531
    19  H    0.124251
    20  C   -0.126630
    21  H    0.141439
    22  C    0.217797
    23  H    0.137487
    24  H    0.137033
    25  N   -0.467841
    26  C   -0.176750
    27  H    0.147471
    28  H    0.151083
    29  H    0.149470
    30  C   -0.273893
    31  H    0.146409
    32  H    0.137384
    33  H    0.151895
    34  F   -0.237945
 Sum of Mulliken charges =  -0.00000
 Mulliken charges with hydrogens summed into heavy atoms:
               1
     1  N   -0.186002
     2  N   -0.201285
     3  C   -0.122651
     4  C   -0.056414
     5  C    0.236540
     6  C    0.201193
     7  C    0.067082
     8  C    0.045344
     9  C   -0.025154
    11  C   -0.012969
    15  C   -0.066257
    16  C    0.050112
    17  C    0.106022
    18  C    0.008956
    20  C    0.010403
    22  C    0.217797
    25  N   -0.467841
    26  C    0.271274
    30  C    0.161795
    34  F   -0.237945
 Electronic spatial extent (au):  <R**2>=           5565.2701
 Charge=             -0.0000 electrons
 Dipole moment (field-independent basis, Debye):
    X=             -6.2729    Y=              2.2618    Z=              2.3685  Tot=              7.0764
 Quadrupole moment (field-independent basis, Debye-Ang):
   XX=            -93.2182   YY=           -122.0919   ZZ=           -113.2651
   XY=              1.1863   XZ=            -13.1060   YZ=             -4.9335
 Traceless Quadrupole moment (field-independent basis, Debye-Ang):
   XX=             16.3069   YY=            -12.5668   ZZ=             -3.7401
   XY=              1.1863   XZ=            -13.1060   YZ=             -4.9335
 Octapole moment (field-independent basis, Debye-Ang**2):
  XXX=           -129.2703  YYY=             55.9328  ZZZ=             21.9014  XYY=            -26.1509
  XXY=            -14.0454  XXZ=             -1.3224  XZZ=             16.4589  YZZ=             -2.1785
  YYZ=             15.0242  XYZ=             -2.8504
 Hexadecapole moment (field-independent basis, Debye-Ang**3):
 XXXX=          -4469.3974 YYYY=          -1956.4149 ZZZZ=           -544.0704 XXXY=             -1.7216
 XXXZ=           -232.6176 YYYX=             62.9586 YYYZ=            -47.3071 ZZZX=              7.5845
 ZZZY=             25.4674 XXYY=          -1102.9766 XXZZ=           -855.3732 YYZZ=           -442.9460
 XXYZ=             -1.4462 YYXZ=            -20.6473 ZZXY=             22.5623
 N-N= 1.479563384198D+03 E-N=-5.016406644440D+03  KE= 8.792278434038D+02
 Leave Link  601 at Thu Jan 30 16:32:44 2025, MaxMem= 25501368320 cpu:               3.0 elap:               0.2
 (Enter /share/Apps/gaussian/g16/l9999.exe)
 Electronic transition elements 
                 1             2             3             4             5 
      1  -0.881849D+03 -0.881800D+03 -0.881782D+03 -0.881776D+03 -0.881775D+03
      2  -0.103195D+01 -0.171842D+01 -0.539147D+00 -0.381144D+00  0.241339D-01
      3   0.245334D+00  0.686524D+00  0.968978D-01  0.160559D+00 -0.201845D+00
      4  -0.173255D+00  0.166729D+00  0.887523D-01  0.929489D-01  0.556576D+00
      5   0.105594D+00  0.254111D+00  0.906721D-01  0.671876D-01 -0.101406D-02
      6  -0.301348D-01 -0.995600D-01 -0.203475D-01 -0.264642D-01  0.356042D-01
      7   0.294422D-01 -0.252754D-01 -0.170889D-01 -0.188206D-01 -0.101538D+00
      8  -0.114245D+01  0.526825D+00  0.162730D+00  0.463431D-01 -0.949785D-01
      9  -0.775130D-01 -0.527959D+00 -0.141849D+00  0.275492D+00  0.599235D+00
     10   0.602295D+00  0.155637D+01  0.637882D+00  0.629612D+00 -0.125833D+01
     11   0.788613D-01 -0.183504D+00 -0.129086D+00  0.849236D+00 -0.961421D+00
     12   0.152176D-01 -0.302348D+00 -0.106521D-01 -0.180152D+00  0.380177D+00
     13  -0.856963D-01  0.155151D+00  0.262716D-01 -0.209460D-01 -0.607907D-01
     14  -0.771862D-01 -0.169527D+00  0.152509D+00 -0.399299D-01 -0.275585D+00
     15   0.543882D-01  0.134500D+00  0.759247D-01 -0.256496D+00 -0.217437D+00
     16  -0.860719D-01  0.343055D+00  0.104822D-01  0.113038D+00 -0.482234D-02
                 6             7             8             9            10 
      1  -0.881767D+03 -0.881762D+03 -0.881749D+03 -0.881740D+03 -0.881736D+03
      2  -0.987389D+00  0.400598D+00 -0.154919D+00 -0.321866D+00  0.113220D+00
      3  -0.894151D+00 -0.460766D+00 -0.171882D+00 -0.673036D+00  0.908705D+00
      4   0.195600D+00 -0.324428D-01  0.274404D+00 -0.732059D-01  0.176623D+00
      5   0.182752D+00 -0.765842D-01  0.317385D-01  0.747741D-01 -0.219908D-01
      6   0.158753D+00  0.849145D-01  0.352518D-01  0.142109D+00 -0.197134D+00
      7  -0.399978D-01  0.559186D-02 -0.552319D-01  0.133470D-01 -0.391028D-01
      8  -0.770751D-01  0.628128D-01 -0.970724D-02  0.159634D+00 -0.196305D-01
      9  -0.477515D+00  0.135126D+00  0.595769D+00 -0.146397D+00  0.646105D+00
     10  -0.523091D+00 -0.263572D+00 -0.228975D+00 -0.194963D+00  0.409855D+00
     11  -0.273138D+00  0.406512D+00  0.265948D+00  0.765398D+00  0.860188D+00
     12  -0.107126D+00  0.267033D+00  0.127885D+00 -0.321313D+00 -0.520159D+00
     13   0.955039D-01 -0.366101D-01 -0.440443D-01  0.736980D-01 -0.368088D-01
     14  -0.355722D+00 -0.307853D+00 -0.173127D+00  0.166901D+00  0.488647D+00
     15   0.161878D+00 -0.109869D+00 -0.244784D+00  0.623313D-01 -0.460843D+00
     16  -0.969689D-01 -0.353909D-01  0.649107D-01 -0.181708D+00  0.259125D+00
                11            12            13            14            15 
      1  -0.881734D+03 -0.881729D+03 -0.881727D+03 -0.881719D+03 -0.881716D+03
      2  -0.150861D+00  0.209637D-01  0.214099D+00 -0.794162D+00 -0.960937D+00
      3   0.292924D+00  0.111052D+01  0.950545D+00 -0.321139D+00 -0.464121D+00
      4   0.286666D+00 -0.398043D-01 -0.110997D+00  0.603481D+00  0.513471D-01
      5   0.344251D-01 -0.109558D-02 -0.462356D-01  0.181113D+00  0.224062D+00
      6  -0.646098D-01 -0.245736D+00 -0.210712D+00  0.760639D-01  0.109288D+00
      7  -0.624561D-01  0.624060D-02  0.183242D-01 -0.144068D+00 -0.105644D-01
      8  -0.392380D+00 -0.312410D+00 -0.180395D+00  0.478837D+00 -0.177364D+00
      9   0.165619D+00  0.261397D+00  0.164967D+00  0.708091D+00 -0.549439D+00
     10  -0.590306D+00  0.499178D+00  0.535411D-01  0.484389D+00 -0.250119D+00
     11  -0.108561D+00  0.846794D+00  0.691618D+00  0.546813D+00 -0.882678D+00
     12  -0.110072D+00 -0.103305D+01 -0.890884D+00  0.231387D+00  0.365447D+00
     13  -0.536445D-01  0.101649D+00 -0.231328D-01 -0.698360D-01  0.129879D+00
     14   0.267110D+00  0.827402D+00  0.101267D+01 -0.546381D+00  0.271487D+00
     15  -0.242981D+00 -0.262858D+00 -0.173095D+00 -0.582097D+00  0.424765D+00
     16  -0.460904D-01  0.154696D+00 -0.397207D-02  0.172841D+00 -0.295910D+00
                16            17            18            19            20 
      1  -0.881713D+03 -0.881711D+03 -0.881706D+03 -0.881704D+03 -0.881700D+03
      2   0.430074D-01  0.564678D+00 -0.140053D+00  0.967148D-01 -0.146758D+01
      3   0.352944D+00  0.212735D+00  0.138280D+00  0.138676D-02 -0.317917D+00
      4  -0.663220D-01  0.354995D+00 -0.307340D+00 -0.811772D-02  0.194945D+00
      5  -0.988235D-02 -0.132929D+00  0.346189D-01 -0.241703D-01  0.370417D+00
      6  -0.808142D-01 -0.500487D-01 -0.311936D-01  0.167840D-02  0.804383D-01
      7   0.161598D-01 -0.845270D-01  0.741100D-01  0.577734D-02 -0.473579D-01
      8   0.195187D+00 -0.151684D+00  0.126064D+00 -0.158278D+00 -0.426670D+00
      9  -0.244590D+00  0.342557D+00 -0.100827D+00 -0.333693D+00 -0.896069D+00
     10   0.216612D+00 -0.132811D+01  0.589440D+00  0.361952D+00 -0.178973D+00
     11  -0.558464D+00 -0.128071D+01  0.129629D+01  0.629103D+00 -0.292069D+00
     12  -0.339264D+00  0.696995D+00 -0.605225D+00 -0.336305D+00 -0.133486D+00
     13   0.624448D-01 -0.730240D-01  0.434923D-01 -0.311430D-01  0.204591D+00
     14   0.280884D+00 -0.764344D-01  0.157963D+00 -0.388808D-01  0.918382D+00
     15   0.233544D+00 -0.338058D+00  0.579262D-01  0.597734D-01  0.388841D+00
     16  -0.103478D-02 -0.122179D+00  0.230107D+00 -0.143231D+00 -0.351603D+00
 Unable to Open any file for archive entry.
 1\1\GINC-SOL-E610\SP\RCAM-B3LYP TD-FC\6-311G(d,p)\C16H14F1N3\CRF524\30
 -Jan-2025\0\\#p td(nstates=20, singlets) cam-b3lyp/6-311g(d,p) scrf=(s
 olvent=acetonitrile)\\f-pai-me_anti-cis_tddft\\0,1\N,0,-0.42611,-2.161
 042,-0.701258\N,0,0.812778,-2.287468,-0.784305\C,0,-1.139429,-1.019013
 ,-0.340006\C,0,-0.93916,0.415697,-0.449579\C,0,-2.437413,-1.213031,0.1
 20899\C,0,-2.141988,0.998723,0.001509\C,0,0.057395,1.266002,-0.942357\
 C,0,-2.357299,2.372529,0.017631\C,0,-0.152089,2.633451,-0.935978\H,0,0
 .984767,0.871808,-1.330578\C,0,-1.343216,3.186108,-0.45261\H,0,-3.2906
 39,2.791127,0.372021\H,0,0.623024,3.289354,-1.313639\H,0,-1.477732,4.2
 60812,-0.457314\C,0,1.743107,-1.321184,-0.305019\C,0,2.854615,-1.05143
 2,-1.099859\C,0,1.673973,-0.797808,0.984864\C,0,3.859618,-0.213891,-0.
 643454\H,0,2.918579,-1.501782,-2.082485\C,0,2.68899,0.016445,1.461332\
 H,0,0.831316,-1.033987,1.621157\C,0,3.755512,0.304679,0.632637\H,0,4.7
 21492,0.023395,-1.253327\H,0,2.659213,0.428837,2.461481\N,0,-3.018139,
 -0.009905,0.365045\C,0,-4.353096,0.224648,0.88286\H,0,-4.309131,0.9193
 71,1.721877\H,0,-5.001107,0.640436,0.109071\H,0,-4.778583,-0.711289,1.
 232794\C,0,-3.133813,-2.504878,0.351389\H,0,-4.113483,-2.517085,-0.130
 257\H,0,-2.525567,-3.308262,-0.057014\H,0,-3.282272,-2.695124,1.417478
 \F,0,4.738466,1.10767,1.091867\\Version=ES64L-G16RevC.01\State=1-A\HF=
 -881.9519157\RMSD=7.353e-09\PG=C01 [X(C16H14F1N3)]\\@
 The archive entry for this job was punched.


 THOUGH I SPEAK WITH THE TONGUES OF MEN AND OF ANGELS, 
 AND HAVE NOT LOVE,
 I AM BECOME AS SOUNDING BRASS, A TINKLING CYMBAL.
 AND THOUGH I HAVE THE GIFT OF PROPHECY,
 AND UNDERSTAND ALL MYSTERIES, AND ALL KNOWLEDGE.
 AND THOUGH I HAVE ALL FAITH, SO THAT I COULD REMOVE MOUNTAINS,
 AND HAVE NOT LOVE, I AM NOTHING.
 AND THOUGH I BESTOW ALL MY GOODS TO FEED THE POOR,
 AND THOUGH I GIVE MY BODY TO BE BURNED,
 AND HAVE NOT LOVE IT PROFITETH ME NOTHING.
 LOVE SUFFERETH LONG, AND IS KIND,
 LOVE ENVIETH NOT,
 LOVE VAUNTETH NOT ITSELF, IS NOT PUFFED UP,
 DOTH NOT BEHAVE ITSELF UNSEEMLY, SEEKETH NOT HER OWN,
 IS NOT EASILY PROVOKED, THINKETH NO EVIL,
 REJOICETH NOT IN INIQUITY, BUT REJOICETH IN THE TRUTH,
 BEARETH ALL THINGS, BELIEVETH ALL THINGS,
 HOPETH ALL THINGS, ENDURETH ALL THINGS.
 LOVE NEVER FAILETH, BUT WHETHER THERE BE PROPHECIES, THEY SHALL FAIL, 
 WHETHER THERE BE TONGUES, THEY SHALL CEASE,
 WHETHER THERE BE KNOWLEDGE, IT SHALL VANISH AWAY.
 FOR WE KNOW IN PART, AND WE PROPHESY IN PART.
 BUT WHEN THAT WHICH IS PERFECT IS COME, THEN THAT WHICH IS IN PART 
 SHALL BE DONE AWAY. 
 WHEN I WAS A CHILD, I SPAKE AS A CHILD, I UNDERSTOOD AS A CHILD, 
 I THOUGHT AS A CHILD.
 BUT WHEN I BECAME A MAN, I PUT AWAY CHILDISH THINGS.
 FOR NOW WE SEE THROUGH A GLASS, DARKLY, BUT THEN FACE TO FACE.
 NOW I KNOW IN PART. BUT THEN SHALL I KNOW EVEN AS ALSO I AM KNOWN.
 AND NOW ABIDETH FAITH, HOPE AND LOVE, THESE THREE.
 BUT THE GREATEST OF THESE IS LOVE.

                     I CORINTHIANS 13
 Job cpu time:       0 days  3 hours  0 minutes 15.5 seconds.
 Elapsed time:       0 days  0 hours  5 minutes  5.2 seconds.
 File lengths (MBytes):  RWF=   2240 Int=      0 D2E=      0 Chk=    140 Scr=      8
 Normal termination of Gaussian 16 at Thu Jan 30 16:32:45 2025.
