 Entering Gaussian System, Link 0=g16
 Initial command:
 /share/Apps/gaussian/g16/l1.exe "/share/ceph/scratch/crf524/12192574/Gau-1471214.inp" -scrdir="/share/ceph/scratch/crf524/12192574/"
 Entering Link 1 = /share/Apps/gaussian/g16/l1.exe PID=   1471215.
  
 Copyright (c) 1988-2019, Gaussian, Inc.  All Rights Reserved.
  
 This is part of the Gaussian(R) 16 program.  It is based on
 the Gaussian(R) 09 system (copyright 2009, Gaussian, Inc.),
 the Gaussian(R) 03 system (copyright 2003, Gaussian, Inc.),
 the Gaussian(R) 98 system (copyright 1998, Gaussian, Inc.),
 the Gaussian(R) 94 system (copyright 1995, Gaussian, Inc.),
 the Gaussian 92(TM) system (copyright 1992, Gaussian, Inc.),
 the Gaussian 90(TM) system (copyright 1990, Gaussian, Inc.),
 the Gaussian 88(TM) system (copyright 1988, Gaussian, Inc.),
 the Gaussian 86(TM) system (copyright 1986, Carnegie Mellon
 University), and the Gaussian 82(TM) system (copyright 1983,
 Carnegie Mellon University). Gaussian is a federally registered
 trademark of Gaussian, Inc.
  
 This software contains proprietary and confidential information,
 including trade secrets, belonging to Gaussian, Inc.
  
 This software is provided under written license and may be
 used, copied, transmitted, or stored only in accord with that
 written license.
  
 The following legend is applicable only to US Government
 contracts under FAR:
  
                    RESTRICTED RIGHTS LEGEND
  
 Use, reproduction and disclosure by the US Government is
 subject to restrictions as set forth in subparagraphs (a)
 and (c) of the Commercial Computer Software - Restricted
 Rights clause in FAR 52.227-19.
  
 Gaussian, Inc.
 340 Quinnipiac St., Bldg. 40, Wallingford CT 06492
  
  
 ---------------------------------------------------------------
 Warning -- This program may not be used in any manner that
 competes with the business of Gaussian, Inc. or will provide
 assistance to any competitor of Gaussian, Inc.  The licensee
 of this program is prohibited from giving any competitor of
 Gaussian, Inc. access to this program.  By using this program,
 the user acknowledges that Gaussian, Inc. is engaged in the
 business of creating and licensing software in the field of
 computational chemistry and represents and warrants to the
 licensee that it is not a competitor of Gaussian, Inc. and that
 it will not use this program in any manner prohibited above.
 ---------------------------------------------------------------
  

 Cite this work as:
 Gaussian 16, Revision C.01,
 M. J. Frisch, G. W. Trucks, H. B. Schlegel, G. E. Scuseria, 
 M. A. Robb, J. R. Cheeseman, G. Scalmani, V. Barone, 
 G. A. Petersson, H. Nakatsuji, X. Li, M. Caricato, A. V. Marenich, 
 J. Bloino, B. G. Janesko, R. Gomperts, B. Mennucci, H. P. Hratchian, 
 J. V. Ortiz, A. F. Izmaylov, J. L. Sonnenberg, D. Williams-Young, 
 F. Ding, F. Lipparini, F. Egidi, J. Goings, B. Peng, A. Petrone, 
 T. Henderson, D. Ranasinghe, V. G. Zakrzewski, J. Gao, N. Rega, 
 G. Zheng, W. Liang, M. Hada, M. Ehara, K. Toyota, R. Fukuda, 
 J. Hasegawa, M. Ishida, T. Nakajima, Y. Honda, O. Kitao, H. Nakai, 
 T. Vreven, K. Throssell, J. A. Montgomery, Jr., J. E. Peralta, 
 F. Ogliaro, M. J. Bearpark, J. J. Heyd, E. N. Brothers, K. N. Kudin, 
 V. N. Staroverov, T. A. Keith, R. Kobayashi, J. Normand, 
 K. Raghavachari, A. P. Rendell, J. C. Burant, S. S. Iyengar, 
 J. Tomasi, M. Cossi, J. M. Millam, M. Klene, C. Adamo, R. Cammi, 
 J. W. Ochterski, R. L. Martin, K. Morokuma, O. Farkas, 
 J. B. Foresman, and D. J. Fox, Gaussian, Inc., Wallingford CT, 2019.
 
 ******************************************
 Gaussian 16:  ES64L-G16RevC.01  3-Jul-2019
                22-Jan-2025 
 ******************************************
 %nprocshared=36
 Will use up to   36 processors via shared memory.
 %mem=190GB
 %chk=anti-cis.chk
 ----------------------------------------------------------------------
 #p td(nstates=20, singlets) cam-b3lyp/6-311g(d,p) scrf=(solvent=aceton
 itrile)
 ----------------------------------------------------------------------
 1/38=1,172=1/1;
 2/12=2,17=6,18=5,40=1/2;
 3/5=4,6=6,7=101,11=9,25=1,30=1,70=2201,72=2,74=-40/1,2,3,8;
 4//1;
 5/5=2,38=5,53=2/2;
 8/6=1,10=2,108=20/1;
 9/41=20,42=1,48=1,70=2/14;
 6/7=2,8=2,9=2,10=2/1;
 99/5=1,9=1/99;
 Leave Link    1 at Wed Jan 22 11:24:15 2025, MaxMem= 25501368320 cpu:               3.6 elap:               0.1
 (Enter /share/Apps/gaussian/g16/l101.exe)
 -----------------------
 h-pai-me_anti-cis_tddft
 -----------------------
 Symbolic Z-matrix:
 Charge =  0 Multiplicity = 1
 N                     0.08704  -2.07163  -0.70156 
 N                     1.33466  -2.08879  -0.71586 
 C                    -0.74592  -1.00998  -0.35209 
 C                    -0.66879   0.44116  -0.38189 
 C                    -2.0514   -1.33859   0.00019 
 C                    -1.94892   0.89342   0.0016 
 C                     0.27942   1.4003   -0.75616 
 C                    -2.28908   2.24044   0.06426 
 C                    -0.05358   2.74204  -0.70324 
 H                     1.26533   1.10977  -1.08692 
 C                    -1.32198   3.16302  -0.28896 
 H                    -3.27976   2.55675   0.36506 
 H                     0.68458   3.48181  -0.98888 
 H                    -1.55291   4.22069  -0.25476 
 C                     2.15175  -1.0628   -0.16195 
 C                     3.25354  -0.64375  -0.90395 
 C                     1.98798  -0.6159    1.14753 
 C                     4.15038   0.26492  -0.36372 
 H                     3.38969  -1.03559  -1.90474 
 C                     2.90513   0.2707    1.6917 
 H                     1.15156  -0.96897   1.73729 
 C                     3.97937   0.7251    0.93673 
 H                     4.99361   0.60328  -0.95382 
 H                     2.77699   0.61204   2.71197 
 H                     4.68787   1.42371   1.36448 
 N                    -2.7546   -0.20471   0.2515 
 C                    -4.1391   -0.11284   0.67561 
 H                    -4.21732   0.52826   1.55401 
 H                    -4.76129   0.29751  -0.12188 
 H                    -4.50742  -1.10065   0.93624 
 C                    -2.64382  -2.69582   0.11978 
 H                    -3.57968  -2.76897  -0.43766 
 H                    -1.93678  -3.42198  -0.27362 
 H                    -2.85402  -2.95032   1.16184 
 
 ITRead=  0  0  0  0  0  0  0  0  0  0  0  0  0  0  0  0  0  0  0  0
 ITRead=  0  0  0  0  0  0  0  0  0  0  0  0  0  0
 MicOpt= -1 -1 -1 -1 -1 -1 -1 -1 -1 -1 -1 -1 -1 -1 -1 -1 -1 -1 -1 -1
 MicOpt= -1 -1 -1 -1 -1 -1 -1 -1 -1 -1 -1 -1 -1 -1
 NAtoms=     34 NQM=       34 NQMF=       0 NMMI=      0 NMMIF=      0
                NMic=       0 NMicF=      0.
                    Isotopes and Nuclear Properties:
 (Nuclear quadrupole moments (NQMom) in fm**2, nuclear magnetic moments (NMagM)
  in nuclear magnetons)

  Atom         1           2           3           4           5           6           7           8           9          10
 IAtWgt=          14          14          12          12          12          12          12          12          12           1
 AtmWgt=  14.0030740  14.0030740  12.0000000  12.0000000  12.0000000  12.0000000  12.0000000  12.0000000  12.0000000   1.0078250
 NucSpn=           2           2           0           0           0           0           0           0           0           1
 AtZEff=  -0.0000000  -0.0000000  -0.0000000  -0.0000000  -0.0000000  -0.0000000  -0.0000000  -0.0000000  -0.0000000  -0.0000000
 NQMom=    2.0440000   2.0440000   0.0000000   0.0000000   0.0000000   0.0000000   0.0000000   0.0000000   0.0000000   0.0000000
 NMagM=    0.4037610   0.4037610   0.0000000   0.0000000   0.0000000   0.0000000   0.0000000   0.0000000   0.0000000   2.7928460
 AtZNuc=   7.0000000   7.0000000   6.0000000   6.0000000   6.0000000   6.0000000   6.0000000   6.0000000   6.0000000   1.0000000

  Atom        11          12          13          14          15          16          17          18          19          20
 IAtWgt=          12           1           1           1          12          12          12          12           1          12
 AtmWgt=  12.0000000   1.0078250   1.0078250   1.0078250  12.0000000  12.0000000  12.0000000  12.0000000   1.0078250  12.0000000
 NucSpn=           0           1           1           1           0           0           0           0           1           0
 AtZEff=  -0.0000000  -0.0000000  -0.0000000  -0.0000000  -0.0000000  -0.0000000  -0.0000000  -0.0000000  -0.0000000  -0.0000000
 NQMom=    0.0000000   0.0000000   0.0000000   0.0000000   0.0000000   0.0000000   0.0000000   0.0000000   0.0000000   0.0000000
 NMagM=    0.0000000   2.7928460   2.7928460   2.7928460   0.0000000   0.0000000   0.0000000   0.0000000   2.7928460   0.0000000
 AtZNuc=   6.0000000   1.0000000   1.0000000   1.0000000   6.0000000   6.0000000   6.0000000   6.0000000   1.0000000   6.0000000

  Atom        21          22          23          24          25          26          27          28          29          30
 IAtWgt=           1          12           1           1           1          14          12           1           1           1
 AtmWgt=   1.0078250  12.0000000   1.0078250   1.0078250   1.0078250  14.0030740  12.0000000   1.0078250   1.0078250   1.0078250
 NucSpn=           1           0           1           1           1           2           0           1           1           1
 AtZEff=  -0.0000000  -0.0000000  -0.0000000  -0.0000000  -0.0000000  -0.0000000  -0.0000000  -0.0000000  -0.0000000  -0.0000000
 NQMom=    0.0000000   0.0000000   0.0000000   0.0000000   0.0000000   2.0440000   0.0000000   0.0000000   0.0000000   0.0000000
 NMagM=    2.7928460   0.0000000   2.7928460   2.7928460   2.7928460   0.4037610   0.0000000   2.7928460   2.7928460   2.7928460
 AtZNuc=   1.0000000   6.0000000   1.0000000   1.0000000   1.0000000   7.0000000   6.0000000   1.0000000   1.0000000   1.0000000

  Atom        31          32          33          34
 IAtWgt=          12           1           1           1
 AtmWgt=  12.0000000   1.0078250   1.0078250   1.0078250
 NucSpn=           0           1           1           1
 AtZEff=  -0.0000000  -0.0000000  -0.0000000  -0.0000000
 NQMom=    0.0000000   0.0000000   0.0000000   0.0000000
 NMagM=    0.0000000   2.7928460   2.7928460   2.7928460
 AtZNuc=   6.0000000   1.0000000   1.0000000   1.0000000
 Leave Link  101 at Wed Jan 22 11:24:15 2025, MaxMem= 25501368320 cpu:               3.3 elap:               0.1
 (Enter /share/Apps/gaussian/g16/l202.exe)
                          Input orientation:                          
 ---------------------------------------------------------------------
 Center     Atomic      Atomic             Coordinates (Angstroms)
 Number     Number       Type             X           Y           Z
 ---------------------------------------------------------------------
      1          7           0        0.087036   -2.071628   -0.701556
      2          7           0        1.334655   -2.088785   -0.715857
      3          6           0       -0.745915   -1.009985   -0.352087
      4          6           0       -0.668793    0.441161   -0.381891
      5          6           0       -2.051400   -1.338587    0.000190
      6          6           0       -1.948921    0.893423    0.001599
      7          6           0        0.279423    1.400300   -0.756156
      8          6           0       -2.289078    2.240436    0.064256
      9          6           0       -0.053581    2.742039   -0.703238
     10          1           0        1.265325    1.109766   -1.086920
     11          6           0       -1.321982    3.163015   -0.288957
     12          1           0       -3.279759    2.556753    0.365064
     13          1           0        0.684580    3.481811   -0.988877
     14          1           0       -1.552906    4.220688   -0.254759
     15          6           0        2.151752   -1.062797   -0.161946
     16          6           0        3.253541   -0.643745   -0.903945
     17          6           0        1.987979   -0.615903    1.147525
     18          6           0        4.150381    0.264924   -0.363716
     19          1           0        3.389693   -1.035594   -1.904739
     20          6           0        2.905129    0.270701    1.691703
     21          1           0        1.151564   -0.968967    1.737293
     22          6           0        3.979369    0.725104    0.936729
     23          1           0        4.993607    0.603276   -0.953819
     24          1           0        2.776986    0.612035    2.711971
     25          1           0        4.687873    1.423713    1.364482
     26          7           0       -2.754599   -0.204707    0.251500
     27          6           0       -4.139104   -0.112843    0.675608
     28          1           0       -4.217322    0.528263    1.554014
     29          1           0       -4.761291    0.297505   -0.121880
     30          1           0       -4.507419   -1.100647    0.936242
     31          6           0       -2.643818   -2.695824    0.119783
     32          1           0       -3.579676   -2.768974   -0.437656
     33          1           0       -1.936776   -3.421982   -0.273622
     34          1           0       -2.854018   -2.950323    1.161844
 ---------------------------------------------------------------------
                    Distance matrix (angstroms):
                    1          2          3          4          5
     1  N    0.000000
     2  N    1.247819   0.000000
     3  C    1.393923   2.371689   0.000000
     4  C    2.643402   3.244374   1.453499   0.000000
     5  C    2.367003   3.541312   1.391535   2.285846   0.000000
     6  C    3.664843   4.493348   2.279316   1.410792   2.234362
     7  C    3.477683   3.645388   2.650295   1.399691   3.675091
     8  C    4.982598   5.699313   3.622144   2.462064   3.587478
     9  C    4.815721   5.026352   3.831490   2.403287   4.597565
    10  H    3.414402   3.220749   3.013040   2.164466   4.263438
    11  C    5.436640   5.900963   4.213047   2.800675   4.569472
    12  H    5.821932   6.636432   4.433542   3.442501   4.100692
    13  H    5.592879   5.615040   4.756895   3.383135   5.630282
    14  H    6.517843   6.954140   5.293453   3.883638   5.587400
    15  C    2.360502   1.423768   2.904379   3.204019   4.215310
    16  C    3.479449   2.409490   4.053927   4.102958   5.426110
    17  C    3.025198   2.463414   3.142978   3.242674   4.260896
    18  C    4.699402   3.686769   5.059569   4.822430   6.416055
    19  H    3.664500   2.597274   4.417538   4.579430   5.772872
    20  C    4.376739   3.718858   4.375769   4.135428   5.478887
    21  H    2.880463   2.702861   2.822697   3.129393   3.662393
    22  C    5.065170   4.200419   5.196142   4.839917   6.442523
    23  H    5.594031   4.548818   5.992229   5.693519   7.369741
    24  H    5.107841   4.596167   4.942695   4.634067   5.871286
    25  H    6.136255   5.282946   6.196414   5.719187   7.410087
    26  N    3.531090   4.605163   2.246687   2.273525   1.357693
    27  C    4.857332   5.983524   3.657151   3.669916   2.513393
    28  H    5.511309   6.544135   4.248540   4.043188   3.254338
    29  H    5.427254   6.573260   4.229157   4.103265   3.167840
    30  H    4.973349   6.151071   3.977050   4.341624   2.639098
    31  C    2.919209   4.110357   2.582005   3.740732   1.485717
    32  H    3.741752   4.968974   3.336400   4.333742   2.138538
    33  H    2.470303   3.560231   2.691103   4.067355   2.104435
    34  H    3.590844   4.670438   3.240524   4.319779   2.142739
                    6          7          8          9         10
     6  C    0.000000
     7  C    2.407620   0.000000
     8  C    1.390711   2.824199   0.000000
     9  C    2.739797   1.383458   2.416216   0.000000
    10  H    3.400449   1.079730   3.903511   2.133317   0.000000
    11  C    2.372451   2.426919   1.382457   1.399175   3.398049
    12  H    2.160996   3.906699   1.082585   3.403502   4.985962
    13  H    3.823104   2.133307   3.390095   1.083390   2.444069
    14  H    3.360542   3.400502   2.136614   2.153024   4.279340
    15  C    4.546324   3.150484   5.539268   4.430944   2.522174
    16  C    5.499864   3.611833   6.322700   4.737180   2.657308
    17  C    4.369255   3.257029   5.255983   4.343854   2.914259
    18  C    6.142471   4.053073   6.749255   4.891285   3.091978
    19  H    5.987991   4.114195   6.845272   5.250738   3.127992
    20  C    5.177455   3.763288   5.788629   4.538416   3.333727
    21  H    4.011750   3.548428   4.993730   4.602188   3.508597
    22  C    6.003951   4.124482   6.507754   4.798146   3.407221
    23  H    7.013965   4.785170   7.533543   5.487368   3.764882
    24  H    5.455226   4.345928   5.943660   4.920638   4.118790
    25  H    6.796006   4.892043   7.143911   5.338055   4.221584
    26  N    1.384723   3.577249   2.496096   4.109785   4.436101
    27  C    2.502751   4.884970   3.055204   5.171370   5.814562
    28  H    2.772901   5.130112   2.978093   5.228071   6.113272
    29  H    2.877462   5.198775   3.149836   5.336315   6.157205
    30  H    3.375764   5.659753   4.104173   6.106620   6.504128
    31  C    3.657806   5.107919   4.949302   6.079231   5.587490
    32  H    4.033046   5.690073   5.197283   6.547911   6.240209
    33  H    4.324189   5.329051   5.683419   6.459578   5.608177
    34  H    4.115793   5.694304   5.335526   6.612410   6.205663
                   11         12         13         14         15
    11  C    0.000000
    12  H    2.151322   0.000000
    13  H    2.148909   4.290090   0.000000
    14  H    1.083129   2.476869   2.468038   0.000000
    15  C    5.471786   6.548297   4.846635   6.453551   0.000000
    16  C    5.983731   7.384956   4.860760   6.869213   1.392877
    17  C    5.224897   6.198956   4.801492   6.156044   1.393288
    18  C    6.192841   7.809647   4.769797   6.941716   2.407919
    19  H    6.514518   7.908132   5.344473   7.401366   2.137888
    20  C    5.491535   6.725983   4.735776   6.266194   2.404539
    21  H    5.224691   5.826692   5.240181   6.181824   2.148555
    22  C    5.962385   7.508440   4.707762   6.651678   2.782779
    23  H    6.846968   8.602564   5.182172   7.512069   3.388068
    24  H    5.684594   6.780417   5.129333   6.369602   3.384580
    25  H    6.471274   8.109610   5.079411   7.027968   3.865828
    26  N    3.699464   2.813246   5.192004   4.613511   4.997953
    27  C    4.426941   2.821640   6.241793   5.131617   6.417069
    28  H    4.326830   2.531284   6.262458   4.899467   6.785359
    29  H    4.479722   2.745224   6.367810   5.069789   7.045721
    30  H    5.461404   3.899996   7.187618   6.201954   6.749223
    31  C    6.019993   5.296617   7.104262   7.012026   5.073819
    32  H    6.348841   5.394226   7.586833   7.279878   5.986345
    33  H    6.613652   6.160909   7.419262   7.652328   4.721683
    34  H    6.467214   5.580681   7.649812   7.424490   5.511162
                   16         17         18         19         20
    16  C    0.000000
    17  C    2.410592   0.000000
    18  C    1.386308   2.781310   0.000000
    19  H    1.083361   3.384857   2.155167   0.000000
    20  C    2.773985   1.386853   2.403213   3.856890   0.000000
    21  H    3.391197   1.082622   3.863888   4.275285   2.147986
    22  C    2.405962   2.410056   1.390024   3.394365   1.389410
    23  H    2.141350   3.864692   1.083390   2.482475   3.386906
    24  H    3.857322   2.139592   3.386230   4.940051   1.083456
    25  H    3.387839   3.390654   2.149037   4.292000   2.148182
    26  N    6.133967   4.843964   6.948222   6.564455   5.859413
    27  C    7.578129   6.165786   8.362922   8.012019   7.127466
    28  H    7.951664   6.322983   8.588684   8.501488   7.128436
    29  H    8.107719   6.928084   8.915012   8.449514   7.878058
    30  H    7.989214   6.516887   8.860710   8.392841   7.576093
    31  C    6.327550   5.180335   7.427041   6.577105   6.485524
    32  H    7.171254   6.176350   8.304444   7.330010   7.471713
    33  H    5.920752   5.029656   7.117224   6.060253   6.398629
    34  H    6.847632   5.375375   7.856637   7.214849   6.619934
                   21         22         23         24         25
    21  H    0.000000
    22  C    3.392235   0.000000
    23  H    4.947254   2.148882   0.000000
    24  H    2.468109   2.147090   4.283865   0.000000
    25  H    4.285952   1.083054   2.478126   2.475083   0.000000
    26  N    4.248504   6.832307   7.882914   6.108962   7.699407
    27  C    5.463634   8.165779   9.304529   7.246001   8.986160
    28  H    5.576758   8.222258   9.546521   7.090009   8.952109
    29  H    6.326320   8.814910   9.795083   8.059483   9.631423
    30  H    5.716914   8.680953   9.835913   7.690842   9.545113
    31  C    4.472505   7.499117   8.388501   6.859044   8.501385
    32  H    5.509543   8.440182   9.227116   7.858659   9.443447
    33  H    4.427065   7.325575   8.043356   6.885246   8.369595
    34  H    4.505730   7.762385   8.870700   6.841162   8.720858
                   26         27         28         29         30
    26  N    0.000000
    27  C    1.450917   0.000000
    28  H    2.091255   1.090290   0.000000
    29  H    2.102009   1.091554   1.777012   0.000000
    30  H    2.084216   1.085975   1.766111   1.771695   0.000000
    31  C    2.497055   3.035887   3.863634   3.674522   2.585383
    32  H    2.780495   2.933828   3.904499   3.301397   2.351939
    33  H    3.360870   4.086770   4.913815   4.672846   3.668865
    34  H    2.894308   3.152644   3.756721   3.979199   2.491171
                   31         32         33         34
    31  C    0.000000
    32  H    1.091751   0.000000
    33  H    1.087190   1.775513   0.000000
    34  H    1.093090   1.765748   1.767585   0.000000
 Stoichiometry    C16H15N3
 Framework group  C1[X(C16H15N3)]
 Deg. of freedom    96
 Full point group                 C1      NOp   1
 Largest Abelian subgroup         C1      NOp   1
 Largest concise Abelian subgroup C1      NOp   1
                         Standard orientation:                         
 ---------------------------------------------------------------------
 Center     Atomic      Atomic             Coordinates (Angstroms)
 Number     Number       Type             X           Y           Z
 ---------------------------------------------------------------------
      1          7           0        0.087036   -2.071628   -0.701556
      2          7           0        1.334655   -2.088785   -0.715857
      3          6           0       -0.745915   -1.009985   -0.352087
      4          6           0       -0.668793    0.441161   -0.381891
      5          6           0       -2.051400   -1.338587    0.000190
      6          6           0       -1.948921    0.893423    0.001599
      7          6           0        0.279423    1.400300   -0.756156
      8          6           0       -2.289078    2.240436    0.064256
      9          6           0       -0.053581    2.742039   -0.703238
     10          1           0        1.265325    1.109766   -1.086920
     11          6           0       -1.321982    3.163015   -0.288957
     12          1           0       -3.279759    2.556753    0.365064
     13          1           0        0.684580    3.481811   -0.988877
     14          1           0       -1.552906    4.220688   -0.254759
     15          6           0        2.151752   -1.062797   -0.161946
     16          6           0        3.253541   -0.643745   -0.903945
     17          6           0        1.987979   -0.615903    1.147525
     18          6           0        4.150381    0.264924   -0.363716
     19          1           0        3.389693   -1.035594   -1.904739
     20          6           0        2.905129    0.270701    1.691703
     21          1           0        1.151564   -0.968967    1.737293
     22          6           0        3.979369    0.725104    0.936729
     23          1           0        4.993607    0.603276   -0.953819
     24          1           0        2.776986    0.612035    2.711971
     25          1           0        4.687873    1.423713    1.364482
     26          7           0       -2.754599   -0.204707    0.251500
     27          6           0       -4.139104   -0.112843    0.675608
     28          1           0       -4.217322    0.528263    1.554014
     29          1           0       -4.761291    0.297505   -0.121880
     30          1           0       -4.507419   -1.100647    0.936242
     31          6           0       -2.643818   -2.695824    0.119783
     32          1           0       -3.579676   -2.768974   -0.437656
     33          1           0       -1.936776   -3.421982   -0.273622
     34          1           0       -2.854018   -2.950323    1.161844
 ---------------------------------------------------------------------
 Rotational constants (GHZ):           0.6427495           0.3070812           0.2335725
 Leave Link  202 at Wed Jan 22 11:24:15 2025, MaxMem= 25501368320 cpu:               1.1 elap:               0.1
 (Enter /share/Apps/gaussian/g16/l301.exe)
 Standard basis: 6-311G(d,p) (5D, 7F)
 Ernie: Thresh=  0.10000D-02 Tol=  0.10000D-05 Strict=F.
 There are   451 symmetry adapted cartesian basis functions of A   symmetry.
 There are   432 symmetry adapted basis functions of A   symmetry.
   432 basis functions,   728 primitive gaussians,   451 cartesian basis functions
    66 alpha electrons       66 beta electrons
       nuclear repulsion energy      1356.7515658051 Hartrees.
 IExCor=20419 DFT=T Ex+Corr=CAM-B3LYP ExCW=0 ScaHFX=  1.000000
 ScaDFX=  1.000000  1.000000  1.000000  0.810000 ScalE2=  1.000000  1.000000
 IRadAn=      5 IRanWt=     -1 IRanGd=            0 ICorTp=0 IEmpDi=  4
 HFx  wShort=  0.000000 wLong=  0.330000 cFull=  0.190000 cShort=  0.000000 cLong=  0.460000
 DFx  wShort=  0.000000 wLong=  0.330000 cFull=  0.190000 cShort=  0.000000 cLong=  0.460000
 NAtoms=   34 NActive=   34 NUniq=   34 SFac= 1.00D+00 NAtFMM=   60 NAOKFM=F Big=F
 Integral buffers will be    131072 words long.
 Raffenetti 1 integral format.
 Two-electron integral symmetry is turned on.
 ------------------------------------------------------------------------------
 Polarizable Continuum Model (PCM)
 =================================
 Model                : PCM.
 Atomic radii         : UFF (Universal Force Field).
 Polarization charges : Total charges.
 Charge compensation  : None.
 Solution method      : On-the-fly selection.
 Cavity type          : Scaled VdW (van der Waals Surface) (Alpha=1.100).
 Cavity algorithm     : GePol (No added spheres)
                        Default sphere list used, NSphG=   34.
                        Lebedev-Laikov grids with approx.  5.0 points / Ang**2.
                        Smoothing algorithm: York/Karplus (Gamma=1.0000).
                        Polarization charges: spherical gaussians, with
                                              point-specific exponents (IZeta= 3).
                        Self-potential: point-specific (ISelfS= 7).
                        Self-field    : sphere-specific E.n sum rule (ISelfD= 2).
 Solvent              : Acetonitrile, Eps=  35.688000 Eps(inf)=   1.806874
 ------------------------------------------------------------------------------
 GePol: Number of generator spheres                  =      34
 GePol: Total number of spheres                      =      34
 GePol: Number of exposed spheres                    =      34 (100.00%)
 GePol: Number of points                             =    2526
 GePol: Average weight of points                     =       0.13
 GePol: Minimum weight of points                     =   0.42D-11
 GePol: Maximum weight of points                     =    0.20577
 GePol: Number of points with low weight             =     160
 GePol: Fraction of low-weight points (<1% of avg)   =       6.33%
 GePol: Cavity surface area                          =    322.138 Ang**2
 GePol: Cavity volume                                =    355.392 Ang**3
 Leave Link  301 at Wed Jan 22 11:24:15 2025, MaxMem= 25501368320 cpu:               3.1 elap:               0.1
 (Enter /share/Apps/gaussian/g16/l302.exe)
 NPDir=0 NMtPBC=     1 NCelOv=     1 NCel=       1 NClECP=     1 NCelD=      1
         NCelK=      1 NCelE2=     1 NClLst=     1 CellRange=     0.0.
 One-electron integrals computed using PRISM.
 One-electron integral symmetry used in STVInt
 NBasis=   432 RedAO= T EigKep=  1.23D-04  NBF=   432
 NBsUse=   432 1.00D-06 EigRej= -1.00D+00 NBFU=   432
 Precomputing XC quadrature grid using
 IXCGrd= 4 IRadAn=           5 IRanWt=          -1 IRanGd=           0 AccXCQ= 0.00D+00.
 Generated NRdTot=       0 NPtTot=           0 NUsed=           0 NTot=          32
 NSgBfM=   451   451   451   451   451 MxSgAt=    34 MxSgA2=    34.
 Leave Link  302 at Wed Jan 22 11:24:15 2025, MaxMem= 25501368320 cpu:              10.8 elap:               0.3
 (Enter /share/Apps/gaussian/g16/l303.exe)
 DipDrv:  MaxL=1.
 Leave Link  303 at Wed Jan 22 11:24:15 2025, MaxMem= 25501368320 cpu:               1.4 elap:               0.1
 (Enter /share/Apps/gaussian/g16/l308.exe)
 Leave Link  308 at Wed Jan 22 11:24:15 2025, MaxMem= 25501368320 cpu:               2.0 elap:               0.1
 (Enter /share/Apps/gaussian/g16/l401.exe)
 ExpMin= 1.03D-01 ExpMax= 6.29D+03 ExpMxC= 9.49D+02 IAcc=3 IRadAn=         5 AccDes= 0.00D+00
 Harris functional with IExCor=20419 and IRadAn=       5 diagonalized for initial guess.
 HarFok:  IExCor=20419 AccDes= 0.00D+00 IRadAn=         5 IDoV= 1 UseB2=F ITyADJ=14
 ICtDFT=  3500011 ScaDFX=  1.000000  1.000000  1.000000  1.000000
 FoFCou: FMM=F IPFlag=           0 FMFlag=      100000 FMFlg1=           0
         NFxFlg=           0 DoJE=T BraDBF=F KetDBF=T FulRan=T
         wScrn=  0.000000 ICntrl=       500 IOpCl=  0 I1Cent=   200000004 NGrid=           0
         NMat0=    1 NMatS0=      1 NMatT0=    0 NMatD0=    1 NMtDS0=    0 NMtDT0=    0
 Petite list used in FoFCou.
 Harris En= -751.500669600416    
 JPrj=0 DoOrth=F DoCkMO=F.
 Leave Link  401 at Wed Jan 22 11:24:16 2025, MaxMem= 25501368320 cpu:              23.2 elap:               0.7
 (Enter /share/Apps/gaussian/g16/l502.exe)
 Integral symmetry usage will be decided dynamically.
 Closed shell SCF:
 Using DIIS extrapolation, IDIIS=  1040.
 NGot= 25501368320 LenX= 25500939987 LenY= 25500736135
 Requested convergence on RMS density matrix=1.00D-08 within 128 cycles.
 Requested convergence on MAX density matrix=1.00D-06.
 Requested convergence on             energy=1.00D-06.
 No special actions if energy rises.
 Fock matrices will be formed incrementally for  20 cycles.

 Cycle   1  Pass 1  IDiag  1:
 FoFJK:  IHMeth= 1 ICntrl=       0 DoSepK=T KAlg= 0 I1Cent=           0 FoldK=F
 IRaf=         1 NMat=       1 IRICut=       1 DoRegI=T DoRafI=F ISym2E= 0 IDoP0=0 IntGTp=1.
 FoFCou: FMM=F IPFlag=           0 FMFlag=      100000 FMFlg1=           0
         NFxFlg=           0 DoJE=T BraDBF=F KetDBF=F FulRan=T
         wScrn=  0.000000 ICntrl=       500 IOpCl=  0 I1Cent=           0 NGrid=           0
         NMat0=    1 NMatS0=      1 NMatT0=    0 NMatD0=    1 NMtDS0=    0 NMtDT0=    0
 Symmetry not used in FoFCou.
 Inv3:  Mode=1 IEnd=    19142028.
 Iteration    1 A*A^-1 deviation from unit magnitude is 3.00D-15 for    372.
 Iteration    1 A*A^-1 deviation from orthogonality  is 2.94D-15 for   2060    612.
 Iteration    1 A^-1*A deviation from unit magnitude is 3.33D-15 for   1659.
 Iteration    1 A^-1*A deviation from orthogonality  is 9.83D-12 for   1989   1986.
 E= -782.442718121037    
 DIIS: error= 4.36D-02 at cycle   1 NSaved=   1.
 NSaved= 1 IEnMin= 1 EnMin= -782.442718121037     IErMin= 1 ErrMin= 4.36D-02
 ErrMax= 4.36D-02  0.00D+00 EMaxC= 1.00D-01 BMatC= 1.38D+00 BMatP= 1.38D+00
 IDIUse=3 WtCom= 5.64D-01 WtEn= 4.36D-01
 Coeff-Com:  0.100D+01
 Coeff-En:   0.100D+01
 Coeff:      0.100D+01
 Gap=     0.294 Goal=   None    Shift=    0.000
 GapD=    0.294 DampG=1.000 DampE=0.500 DampFc=0.5000 IDamp=-1.
 Damping current iteration by 5.00D-01
 RMSDP=2.30D-03 MaxDP=8.76D-02              OVMax= 1.61D-01

 Cycle   2  Pass 1  IDiag  1:
 RMSU=  1.11D-03    CP:  9.69D-01
 E= -782.563453611903     Delta-E=       -0.120735490866 Rises=F Damp=T
 DIIS: error= 2.13D-02 at cycle   2 NSaved=   2.
 NSaved= 2 IEnMin= 2 EnMin= -782.563453611903     IErMin= 2 ErrMin= 2.13D-02
 ErrMax= 2.13D-02  0.00D+00 EMaxC= 1.00D-01 BMatC= 2.82D-01 BMatP= 1.38D+00
 IDIUse=3 WtCom= 7.87D-01 WtEn= 2.13D-01
 Coeff-Com: -0.529D+00 0.153D+01
 Coeff-En:   0.000D+00 0.100D+01
 Coeff:     -0.416D+00 0.142D+01
 Gap=     0.323 Goal=   None    Shift=    0.000
 RMSDP=9.21D-04 MaxDP=4.41D-02 DE=-1.21D-01 OVMax= 1.45D-01

 Cycle   3  Pass 1  IDiag  1:
 RMSU=  8.69D-04    CP:  9.78D-01  7.36D-01
 E= -782.631442614118     Delta-E=       -0.067989002214 Rises=F Damp=F
 DIIS: error= 1.43D-02 at cycle   3 NSaved=   3.
 NSaved= 3 IEnMin= 3 EnMin= -782.631442614118     IErMin= 3 ErrMin= 1.43D-02
 ErrMax= 1.43D-02  0.00D+00 EMaxC= 1.00D-01 BMatC= 8.37D-02 BMatP= 2.82D-01
 IDIUse=3 WtCom= 8.57D-01 WtEn= 1.43D-01
 Coeff-Com: -0.342D+00 0.739D+00 0.603D+00
 Coeff-En:   0.000D+00 0.000D+00 0.100D+01
 Coeff:     -0.293D+00 0.634D+00 0.660D+00
 Gap=     0.252 Goal=   None    Shift=    0.000
 RMSDP=8.14D-04 MaxDP=4.10D-02 DE=-6.80D-02 OVMax= 6.89D-02

 Cycle   4  Pass 1  IDiag  1:
 RMSU=  2.09D-04    CP:  9.57D-01  1.35D+00  6.14D-01
 E= -782.700597745393     Delta-E=       -0.069155131276 Rises=F Damp=F
 DIIS: error= 4.47D-03 at cycle   4 NSaved=   4.
 NSaved= 4 IEnMin= 4 EnMin= -782.700597745393     IErMin= 4 ErrMin= 4.47D-03
 ErrMax= 4.47D-03  0.00D+00 EMaxC= 1.00D-01 BMatC= 5.27D-03 BMatP= 8.37D-02
 IDIUse=3 WtCom= 9.55D-01 WtEn= 4.47D-02
 Coeff-Com: -0.164D+00 0.353D+00 0.375D+00 0.435D+00
 Coeff-En:   0.000D+00 0.000D+00 0.000D+00 0.100D+01
 Coeff:     -0.156D+00 0.337D+00 0.358D+00 0.461D+00
 Gap=     0.228 Goal=   None    Shift=    0.000
 RMSDP=1.26D-04 MaxDP=1.05D-02 DE=-6.92D-02 OVMax= 1.37D-02

 Cycle   5  Pass 1  IDiag  1:
 RMSU=  9.14D-05    CP:  9.58D-01  1.30D+00  6.74D-01  8.21D-01
 E= -782.704783798916     Delta-E=       -0.004186053522 Rises=F Damp=F
 DIIS: error= 6.34D-04 at cycle   5 NSaved=   5.
 NSaved= 5 IEnMin= 5 EnMin= -782.704783798916     IErMin= 5 ErrMin= 6.34D-04
 ErrMax= 6.34D-04  0.00D+00 EMaxC= 1.00D-01 BMatC= 9.07D-05 BMatP= 5.27D-03
 IDIUse=3 WtCom= 9.94D-01 WtEn= 6.34D-03
 Coeff-Com:  0.179D-02-0.411D-02 0.197D-01 0.145D+00 0.837D+00
 Coeff-En:   0.000D+00 0.000D+00 0.000D+00 0.000D+00 0.100D+01
 Coeff:      0.178D-02-0.409D-02 0.196D-01 0.144D+00 0.838D+00
 Gap=     0.230 Goal=   None    Shift=    0.000
 RMSDP=3.64D-05 MaxDP=1.38D-03 DE=-4.19D-03 OVMax= 4.97D-03

 Cycle   6  Pass 1  IDiag  1:
 RMSU=  2.79D-05    CP:  9.58D-01  1.31D+00  6.87D-01  9.08D-01  9.16D-01
 E= -782.704903435493     Delta-E=       -0.000119636578 Rises=F Damp=F
 DIIS: error= 2.22D-04 at cycle   6 NSaved=   6.
 NSaved= 6 IEnMin= 6 EnMin= -782.704903435493     IErMin= 6 ErrMin= 2.22D-04
 ErrMax= 2.22D-04  0.00D+00 EMaxC= 1.00D-01 BMatC= 2.70D-05 BMatP= 9.07D-05
 IDIUse=3 WtCom= 9.98D-01 WtEn= 2.22D-03
 Coeff-Com:  0.197D-01-0.428D-01-0.349D-01 0.958D-02 0.425D+00 0.623D+00
 Coeff-En:   0.000D+00 0.000D+00 0.000D+00 0.000D+00 0.000D+00 0.100D+01
 Coeff:      0.197D-01-0.427D-01-0.348D-01 0.956D-02 0.424D+00 0.624D+00
 Gap=     0.230 Goal=   None    Shift=    0.000
 RMSDP=1.78D-05 MaxDP=7.35D-04 DE=-1.20D-04 OVMax= 2.97D-03

 Cycle   7  Pass 1  IDiag  1:
 RMSU=  1.15D-05    CP:  9.58D-01  1.31D+00  6.88D-01  9.33D-01  1.04D+00
                    CP:  1.01D+00
 E= -782.704933918494     Delta-E=       -0.000030483001 Rises=F Damp=F
 DIIS: error= 7.97D-05 at cycle   7 NSaved=   7.
 NSaved= 7 IEnMin= 7 EnMin= -782.704933918494     IErMin= 7 ErrMin= 7.97D-05
 ErrMax= 7.97D-05  0.00D+00 EMaxC= 1.00D-01 BMatC= 3.20D-06 BMatP= 2.70D-05
 IDIUse=1 WtCom= 1.00D+00 WtEn= 0.00D+00
 Coeff-Com:  0.723D-02-0.157D-01-0.161D-01-0.191D-01 0.446D-01 0.268D+00
 Coeff-Com:  0.731D+00
 Coeff:      0.723D-02-0.157D-01-0.161D-01-0.191D-01 0.446D-01 0.268D+00
 Coeff:      0.731D+00
 Gap=     0.230 Goal=   None    Shift=    0.000
 RMSDP=8.05D-06 MaxDP=3.12D-04 DE=-3.05D-05 OVMax= 1.36D-03

 Cycle   8  Pass 1  IDiag  1:
 RMSU=  3.86D-06    CP:  9.58D-01  1.31D+00  6.87D-01  9.47D-01  1.08D+00
                    CP:  1.16D+00  9.96D-01
 E= -782.704938875115     Delta-E=       -0.000004956621 Rises=F Damp=F
 DIIS: error= 5.30D-05 at cycle   8 NSaved=   8.
 NSaved= 8 IEnMin= 8 EnMin= -782.704938875115     IErMin= 8 ErrMin= 5.30D-05
 ErrMax= 5.30D-05  0.00D+00 EMaxC= 1.00D-01 BMatC= 4.16D-07 BMatP= 3.20D-06
 IDIUse=1 WtCom= 1.00D+00 WtEn= 0.00D+00
 Coeff-Com: -0.985D-03 0.218D-02 0.547D-03-0.898D-02-0.577D-01 0.385D-02
 Coeff-Com:  0.280D+00 0.781D+00
 Coeff:     -0.985D-03 0.218D-02 0.547D-03-0.898D-02-0.577D-01 0.385D-02
 Coeff:      0.280D+00 0.781D+00
 Gap=     0.230 Goal=   None    Shift=    0.000
 RMSDP=3.57D-06 MaxDP=1.02D-04 DE=-4.96D-06 OVMax= 9.86D-04

 Cycle   9  Pass 1  IDiag  1:
 RMSU=  1.97D-06    CP:  9.58D-01  1.31D+00  6.87D-01  9.51D-01  1.09D+00
                    CP:  1.21D+00  1.19D+00  1.12D+00
 E= -782.704939948197     Delta-E=       -0.000001073081 Rises=F Damp=F
 DIIS: error= 1.13D-05 at cycle   9 NSaved=   9.
 NSaved= 9 IEnMin= 9 EnMin= -782.704939948197     IErMin= 9 ErrMin= 1.13D-05
 ErrMax= 1.13D-05  0.00D+00 EMaxC= 1.00D-01 BMatC= 1.14D-07 BMatP= 4.16D-07
 IDIUse=1 WtCom= 1.00D+00 WtEn= 0.00D+00
 Coeff-Com: -0.130D-02 0.283D-02 0.212D-02-0.186D-02-0.335D-01-0.370D-01
 Coeff-Com: -0.111D-01 0.362D+00 0.717D+00
 Coeff:     -0.130D-02 0.283D-02 0.212D-02-0.186D-02-0.335D-01-0.370D-01
 Coeff:     -0.111D-01 0.362D+00 0.717D+00
 Gap=     0.230 Goal=   None    Shift=    0.000
 RMSDP=1.76D-06 MaxDP=5.84D-05 DE=-1.07D-06 OVMax= 3.76D-04

 Cycle  10  Pass 1  IDiag  1:
 RMSU=  7.84D-07    CP:  9.58D-01  1.31D+00  6.87D-01  9.53D-01  1.09D+00
                    CP:  1.25D+00  1.23D+00  1.34D+00  1.12D+00
 E= -782.704940183435     Delta-E=       -0.000000235238 Rises=F Damp=F
 DIIS: error= 3.89D-06 at cycle  10 NSaved=  10.
 NSaved=10 IEnMin=10 EnMin= -782.704940183435     IErMin=10 ErrMin= 3.89D-06
 ErrMax= 3.89D-06  0.00D+00 EMaxC= 1.00D-01 BMatC= 1.08D-08 BMatP= 1.14D-07
 IDIUse=1 WtCom= 1.00D+00 WtEn= 0.00D+00
 Coeff-Com: -0.272D-03 0.581D-03 0.653D-03 0.114D-02-0.119D-03-0.986D-02
 Coeff-Com: -0.607D-01-0.113D-02 0.167D+00 0.903D+00
 Coeff:     -0.272D-03 0.581D-03 0.653D-03 0.114D-02-0.119D-03-0.986D-02
 Coeff:     -0.607D-01-0.113D-02 0.167D+00 0.903D+00
 Gap=     0.230 Goal=   None    Shift=    0.000
 RMSDP=8.64D-07 MaxDP=2.60D-05 DE=-2.35D-07 OVMax= 2.39D-04

 Cycle  11  Pass 1  IDiag  1:
 RMSU=  3.34D-07    CP:  9.58D-01  1.31D+00  6.87D-01  9.53D-01  1.10D+00
                    CP:  1.26D+00  1.25D+00  1.45D+00  1.36D+00  1.28D+00
 E= -782.704940229538     Delta-E=       -0.000000046103 Rises=F Damp=F
 DIIS: error= 2.97D-06 at cycle  11 NSaved=  11.
 NSaved=11 IEnMin=11 EnMin= -782.704940229538     IErMin=11 ErrMin= 2.97D-06
 ErrMax= 2.97D-06  0.00D+00 EMaxC= 1.00D-01 BMatC= 3.36D-09 BMatP= 1.08D-08
 IDIUse=1 WtCom= 1.00D+00 WtEn= 0.00D+00
 Coeff-Com:  0.220D-03-0.483D-03-0.285D-03 0.872D-03 0.714D-02 0.642D-02
 Coeff-Com: -0.189D-01-0.699D-01-0.135D+00 0.311D+00 0.899D+00
 Coeff:      0.220D-03-0.483D-03-0.285D-03 0.872D-03 0.714D-02 0.642D-02
 Coeff:     -0.189D-01-0.699D-01-0.135D+00 0.311D+00 0.899D+00
 Gap=     0.230 Goal=   None    Shift=    0.000
 RMSDP=4.79D-07 MaxDP=1.50D-05 DE=-4.61D-08 OVMax= 1.09D-04

 Cycle  12  Pass 1  IDiag  1:
 RMSU=  1.57D-07    CP:  9.58D-01  1.31D+00  6.87D-01  9.53D-01  1.10D+00
                    CP:  1.26D+00  1.26D+00  1.51D+00  1.47D+00  1.59D+00
                    CP:  1.32D+00
 E= -782.704940241195     Delta-E=       -0.000000011657 Rises=F Damp=F
 DIIS: error= 7.32D-07 at cycle  12 NSaved=  12.
 NSaved=12 IEnMin=12 EnMin= -782.704940241195     IErMin=12 ErrMin= 7.32D-07
 ErrMax= 7.32D-07  0.00D+00 EMaxC= 1.00D-01 BMatC= 2.98D-10 BMatP= 3.36D-09
 IDIUse=1 WtCom= 1.00D+00 WtEn= 0.00D+00
 Coeff-Com:  0.902D-04-0.193D-03-0.154D-03 0.579D-04 0.115D-02 0.286D-02
 Coeff-Com:  0.590D-02-0.973D-02-0.469D-01-0.899D-01 0.139D+00 0.998D+00
 Coeff:      0.902D-04-0.193D-03-0.154D-03 0.579D-04 0.115D-02 0.286D-02
 Coeff:      0.590D-02-0.973D-02-0.469D-01-0.899D-01 0.139D+00 0.998D+00
 Gap=     0.230 Goal=   None    Shift=    0.000
 RMSDP=1.80D-07 MaxDP=5.70D-06 DE=-1.17D-08 OVMax= 3.94D-05

 Cycle  13  Pass 1  IDiag  1:
 RMSU=  4.74D-08    CP:  9.58D-01  1.31D+00  6.87D-01  9.54D-01  1.10D+00
                    CP:  1.26D+00  1.26D+00  1.53D+00  1.51D+00  1.69D+00
                    CP:  1.59D+00  1.35D+00
 E= -782.704940242687     Delta-E=       -0.000000001493 Rises=F Damp=F
 DIIS: error= 2.50D-07 at cycle  13 NSaved=  13.
 NSaved=13 IEnMin=13 EnMin= -782.704940242687     IErMin=13 ErrMin= 2.50D-07
 ErrMax= 2.50D-07  0.00D+00 EMaxC= 1.00D-01 BMatC= 5.36D-11 BMatP= 2.98D-10
 IDIUse=1 WtCom= 1.00D+00 WtEn= 0.00D+00
 Coeff-Com: -0.737D-05 0.175D-04 0.474D-05-0.909D-04-0.773D-03-0.186D-03
 Coeff-Com:  0.458D-02 0.746D-02 0.725D-02-0.787D-01-0.965D-01 0.320D+00
 Coeff-Com:  0.837D+00
 Coeff:     -0.737D-05 0.175D-04 0.474D-05-0.909D-04-0.773D-03-0.186D-03
 Coeff:      0.458D-02 0.746D-02 0.725D-02-0.787D-01-0.965D-01 0.320D+00
 Coeff:      0.837D+00
 Gap=     0.230 Goal=   None    Shift=    0.000
 RMSDP=6.26D-08 MaxDP=2.40D-06 DE=-1.49D-09 OVMax= 1.14D-05

 Cycle  14  Pass 1  IDiag  1:
 RMSU=  2.13D-08    CP:  9.58D-01  1.31D+00  6.87D-01  9.54D-01  1.10D+00
                    CP:  1.26D+00  1.26D+00  1.53D+00  1.52D+00  1.73D+00
                    CP:  1.68D+00  1.52D+00  1.21D+00
 E= -782.704940242859     Delta-E=       -0.000000000172 Rises=F Damp=F
 DIIS: error= 1.08D-07 at cycle  14 NSaved=  14.
 NSaved=14 IEnMin=14 EnMin= -782.704940242859     IErMin=14 ErrMin= 1.08D-07
 ErrMax= 1.08D-07  0.00D+00 EMaxC= 1.00D-01 BMatC= 7.68D-12 BMatP= 5.36D-11
 IDIUse=1 WtCom= 1.00D+00 WtEn= 0.00D+00
 Coeff-Com: -0.139D-04 0.302D-04 0.225D-04-0.337D-04-0.365D-03-0.456D-03
 Coeff-Com:  0.571D-03 0.322D-02 0.886D-02-0.105D-01-0.464D-01-0.366D-01
 Coeff-Com:  0.248D+00 0.834D+00
 Coeff:     -0.139D-04 0.302D-04 0.225D-04-0.337D-04-0.365D-03-0.456D-03
 Coeff:      0.571D-03 0.322D-02 0.886D-02-0.105D-01-0.464D-01-0.366D-01
 Coeff:      0.248D+00 0.834D+00
 Gap=     0.230 Goal=   None    Shift=    0.000
 RMSDP=1.91D-08 MaxDP=5.53D-07 DE=-1.72D-10 OVMax= 3.24D-06

 Cycle  15  Pass 1  IDiag  1:
 RMSU=  6.94D-09    CP:  9.58D-01  1.31D+00  6.87D-01  9.54D-01  1.10D+00
                    CP:  1.26D+00  1.26D+00  1.53D+00  1.53D+00  1.73D+00
                    CP:  1.70D+00  1.57D+00  1.42D+00  1.29D+00
 E= -782.704940242892     Delta-E=       -0.000000000033 Rises=F Damp=F
 DIIS: error= 6.02D-08 at cycle  15 NSaved=  15.
 NSaved=15 IEnMin=15 EnMin= -782.704940242892     IErMin=15 ErrMin= 6.02D-08
 ErrMax= 6.02D-08  0.00D+00 EMaxC= 1.00D-01 BMatC= 1.76D-12 BMatP= 7.68D-12
 IDIUse=1 WtCom= 1.00D+00 WtEn= 0.00D+00
 Coeff-Com: -0.220D-05 0.450D-05 0.487D-05 0.567D-05 0.526D-04-0.136D-03
 Coeff-Com: -0.782D-03-0.763D-03 0.169D-02 0.135D-01 0.525D-02-0.837D-01
 Coeff-Com: -0.877D-01 0.300D+00 0.853D+00
 Coeff:     -0.220D-05 0.450D-05 0.487D-05 0.567D-05 0.526D-04-0.136D-03
 Coeff:     -0.782D-03-0.763D-03 0.169D-02 0.135D-01 0.525D-02-0.837D-01
 Coeff:     -0.877D-01 0.300D+00 0.853D+00
 Gap=     0.230 Goal=   None    Shift=    0.000
 RMSDP=9.86D-09 MaxDP=3.58D-07 DE=-3.25D-11 OVMax= 1.52D-06

 Error on total polarization charges =  0.01399
 SCF Done:  E(RCAM-B3LYP) =  -782.704940243     A.U. after   15 cycles
            NFock= 15  Conv=0.99D-08     -V/T= 2.0033
 KE= 7.800944137367D+02 PE=-4.533696329941D+03 EE= 1.614145410156D+03
 Leave Link  502 at Wed Jan 22 11:24:56 2025, MaxMem= 25501368320 cpu:            1395.8 elap:              39.7
 (Enter /share/Apps/gaussian/g16/l801.exe)
 DoSCS=F DFT=T ScalE2(SS,OS)=  1.000000  1.000000
 ExpMin= 1.03D-01 ExpMax= 6.29D+03 ExpMxC= 9.49D+02 IAcc=3 IRadAn=         5 AccDes= 0.00D+00
 HarFok:  IExCor=  205 AccDes= 0.00D+00 IRadAn=         5 IDoV=-2 UseB2=F ITyADJ=14
 ICtDFT= 12500011 ScaDFX=  1.000000  1.000000  1.000000  1.000000
 Largest valence mixing into a core orbital is  5.15D-05
 Largest core mixing into a valence orbital is  1.75D-05
 Range of M.O.s used for correlation:    20   432
 NBasis=   432 NAE=    66 NBE=    66 NFC=    19 NFV=     0
 NROrb=    413 NOA=    47 NOB=    47 NVA=   366 NVB=   366

 **** Warning!!: The largest alpha MO coefficient is  0.15896521D+02

 Leave Link  801 at Wed Jan 22 11:24:56 2025, MaxMem= 25501368320 cpu:              11.7 elap:               0.4
 (Enter /share/Apps/gaussian/g16/l914.exe)
 RHF ground state
 Two-electron integrals replicated using symmetry.
 MDV= 25501368320 DFT=T DoStab=F Mixed=T DoRPA=T DoScal=F NonHer=T
 NEqPCM:  Using non-equilibrium solvation (IEInf=1, Eps=  35.6880, EpsInf=   1.8069)
 Inv3:  Mode=1 IEnd=    19142028.
 Iteration    1 A*A^-1 deviation from unit magnitude is 3.55D-15 for   1999.
 Iteration    1 A*A^-1 deviation from orthogonality  is 1.98D-15 for   1335   1226.
 Iteration    1 A^-1*A deviation from unit magnitude is 3.55D-15 for   1999.
 Iteration    1 A^-1*A deviation from orthogonality  is 1.61D-15 for   2177    235.
 Making orbital integer symmetry assigments:
 Orbital symmetries:
       Occupied  (A) (A) (A) (A) (A) (A) (A) (A) (A) (A) (A) (A)
                 (A) (A) (A) (A) (A) (A) (A) (A) (A) (A) (A) (A)
                 (A) (A) (A) (A) (A) (A) (A) (A) (A) (A) (A) (A)
                 (A) (A) (A) (A) (A) (A) (A) (A) (A) (A) (A) (A)
                 (A) (A) (A) (A) (A) (A) (A) (A) (A) (A) (A) (A)
                 (A) (A) (A) (A) (A) (A)
       Virtual   (A) (A) (A) (A) (A) (A) (A) (A) (A) (A) (A) (A)
                 (A) (A) (A) (A) (A) (A) (A) (A) (A) (A) (A) (A)
                 (A) (A) (A) (A) (A) (A) (A) (A) (A) (A) (A) (A)
                 (A) (A) (A) (A) (A) (A) (A) (A) (A) (A) (A) (A)
                 (A) (A) (A) (A) (A) (A) (A) (A) (A) (A) (A) (A)
                 (A) (A) (A) (A) (A) (A) (A) (A) (A) (A) (A) (A)
                 (A) (A) (A) (A) (A) (A) (A) (A) (A) (A) (A) (A)
                 (A) (A) (A) (A) (A) (A) (A) (A) (A) (A) (A) (A)
                 (A) (A) (A) (A) (A) (A) (A) (A) (A) (A) (A) (A)
                 (A) (A) (A) (A) (A) (A) (A) (A) (A) (A) (A) (A)
                 (A) (A) (A) (A) (A) (A) (A) (A) (A) (A) (A) (A)
                 (A) (A) (A) (A) (A) (A) (A) (A) (A) (A) (A) (A)
                 (A) (A) (A) (A) (A) (A) (A) (A) (A) (A) (A) (A)
                 (A) (A) (A) (A) (A) (A) (A) (A) (A) (A) (A) (A)
                 (A) (A) (A) (A) (A) (A) (A) (A) (A) (A) (A) (A)
                 (A) (A) (A) (A) (A) (A) (A) (A) (A) (A) (A) (A)
                 (A) (A) (A) (A) (A) (A) (A) (A) (A) (A) (A) (A)
                 (A) (A) (A) (A) (A) (A) (A) (A) (A) (A) (A) (A)
                 (A) (A) (A) (A) (A) (A) (A) (A) (A) (A) (A) (A)
                 (A) (A) (A) (A) (A) (A) (A) (A) (A) (A) (A) (A)
                 (A) (A) (A) (A) (A) (A) (A) (A) (A) (A) (A) (A)
                 (A) (A) (A) (A) (A) (A) (A) (A) (A) (A) (A) (A)
                 (A) (A) (A) (A) (A) (A) (A) (A) (A) (A) (A) (A)
                 (A) (A) (A) (A) (A) (A) (A) (A) (A) (A) (A) (A)
                 (A) (A) (A) (A) (A) (A) (A) (A) (A) (A) (A) (A)
                 (A) (A) (A) (A) (A) (A) (A) (A) (A) (A) (A) (A)
                 (A) (A) (A) (A) (A) (A) (A) (A) (A) (A) (A) (A)
                 (A) (A) (A) (A) (A) (A) (A) (A) (A) (A) (A) (A)
                 (A) (A) (A) (A) (A) (A) (A) (A) (A) (A) (A) (A)
                 (A) (A) (A) (A) (A) (A) (A) (A) (A) (A) (A) (A)
                 (A) (A) (A) (A) (A) (A)
    80 initial guesses have been made.
 Convergence on wavefunction:    0.001000000000000
 Davidson Disk Diagonalization:  ConvIn= 1.00D-03 SkipCon=T Conv= 1.00D-03.
 Max sub-space:  2000 roots to seek:    80 dimension of matrix:        34404
 Iteration     1 Dimension    80 NMult     0 NNew     80
 CISAX will form    80 AO SS matrices at one time.
 NMat=    80 NSing=    80 JSym2X= 0.
 FoFJK:  IHMeth= 1 ICntrl=       0 DoSepK=T KAlg= 0 I1Cent=           0 FoldK=F
 IRaf=         1 NMat=     160 IRICut=       1 DoRegI=T DoRafI=F ISym2E= 0 IDoP0=3 IntGTp=3.
 New state      2 was old state      3
 New state      3 was old state      2
 New state      4 was old state      5
 New state      5 was old state      7
 New state      6 was old state      4
 New state      7 was old state     10
 New state      8 was old state      6
 New state      9 was old state      8
 New state     10 was old state      9
 New state     11 was old state     12
 New state     12 was old state     14
 New state     13 was old state     23
 New state     14 was old state     18
 New state     15 was old state     26
 New state     16 was old state     13
 New state     17 was old state     15
 New state     18 was old state     17
 New state     20 was old state     16
 Excitation Energies [eV] at current iteration:
 Root      1 :     3.039799226106113
 Root      2 :     4.534631279278556
 Root      3 :     4.832454705349990
 Root      4 :     5.018034244051233
 Root      5 :     5.200555904688096
 Root      6 :     5.305420563307435
 Root      7 :     5.356689539278997
 Root      8 :     5.651330669064793
 Root      9 :     6.089427570887669
 Root     10 :     6.130229820669034
 Root     11 :     6.169037238620717
 Root     12 :     6.312562127885866
 Root     13 :     6.513538700169192
 Root     14 :     6.561274438110231
 Root     15 :     6.654956748122637
 Root     16 :     6.769031333828590
 Root     17 :     6.858252502334298
 Root     18 :     6.953883704899684
 Root     19 :     7.159716165345654
 Root     20 :     7.191197732725391
 Root     21 :     7.272095695845032
 Root     22 :     7.280498521032939
 Root     23 :     7.368155284874781
 Root     24 :     7.445236506404768
 Root     25 :     7.494017062101004
 Root     26 :     7.595379590242233
 Root     27 :     7.663362283580500
 Root     28 :     7.767594343074732
 Root     29 :     7.814572156776955
 Root     30 :     7.869721438272392
 Root     31 :     7.959275947724453
 Root     32 :     8.029858700412658
 Root     33 :     8.048750724568437
 Root     34 :     8.077179058991902
 Root     35 :     8.090104179250041
 Root     36 :     8.135882640425157
 Root     37 :     8.155653928136253
 Root     38 :     8.252522249973055
 Root     39 :     8.298438577851348
 Root     40 :     8.353809849434397
 Root     41 :     8.369132449450097
 Root     42 :     8.402438127185629
 Root     43 :     8.477200383270162
 Root     44 :     8.485098724701539
 Root     45 :     8.511963916549512
 Root     46 :     8.520042093413352
 Root     47 :     8.627871673035809
 Root     48 :     8.666982429717498
 Root     49 :     8.685713085226105
 Root     50 :     8.710345564171078
 Root     51 :     8.821099990799556
 Root     52 :     8.823301437960398
 Root     53 :     8.858869985969973
 Root     54 :     8.889291220314030
 Root     55 :     8.934252899748516
 Root     56 :     8.947161782659510
 Root     57 :     8.968165251564802
 Root     58 :     9.014945267122016
 Root     59 :     9.081182551906803
 Root     60 :     9.145099196086356
 Root     61 :     9.179163971353441
 Root     62 :     9.239877591262372
 Root     63 :     9.256808826832694
 Root     64 :     9.315761696091041
 Root     65 :     9.389780699952293
 Root     66 :     9.475053778380021
 Root     67 :     9.530521130601814
 Root     68 :     9.564890644501972
 Root     69 :     9.607077083437952
 Root     70 :     9.612182087266669
 Root     71 :     9.651392836211613
 Root     72 :     9.662165909040237
 Root     73 :     9.716292742297455
 Root     74 :     9.737598445383560
 Root     75 :     9.797086375004538
 Root     76 :     9.835450510739948
 Root     77 :     9.867506316827349
 Root     78 :     9.881310015733108
 Root     79 :     9.937616188174474
 Root     80 :    10.033536255205698
 Iteration     2 Dimension   120 NMult    80 NNew     40
 CISAX will form    40 AO SS matrices at one time.
 NMat=    40 NSing=    40 JSym2X= 0.
 Root      1 not converged, maximum delta is    0.031961951987835
 Root      2 not converged, maximum delta is    0.070826821503914
 Root      3 not converged, maximum delta is    0.074217212603348
 New state      4 was old state      5
 Root      4 not converged, maximum delta is    0.269874664098912
 New state      5 was old state      4
 Root      5 not converged, maximum delta is    0.255539740835646
 Root      6 not converged, maximum delta is    0.283193194380065
 Root      7 not converged, maximum delta is    0.249639321576791
 Root      8 not converged, maximum delta is    0.067439112854832
 New state      9 was old state     10
 Root      9 not converged, maximum delta is    0.310729660837272
 New state     10 was old state      9
 Root     10 not converged, maximum delta is    0.324009114963616
 Root     11 not converged, maximum delta is    0.380281477995707
 Root     12 not converged, maximum delta is    0.294092424780432
 New state     13 was old state     15
 Root     13 not converged, maximum delta is    0.375885901871119
 Root     14 not converged, maximum delta is    0.194199611720663
 New state     15 was old state     13
 Root     15 not converged, maximum delta is    0.300217021295888
 Root     16 not converged, maximum delta is    0.206424976017574
 New state     17 was old state     19
 Root     17 not converged, maximum delta is    0.350821927804152
 New state     18 was old state     17
 Root     18 not converged, maximum delta is    0.068089754434568
 New state     19 was old state     18
 Root     19 not converged, maximum delta is    0.184677415387252
 Root     20 not converged, maximum delta is    0.352827023248276
 Excitation Energies [eV] at current iteration:
 Root      1 :     2.823610428340926   Change is   -0.216188797765187
 Root      2 :     4.150881302584609   Change is   -0.383749976693947
 Root      3 :     4.654051832233163   Change is   -0.178402873116827
 Root      4 :     4.854663329037806   Change is   -0.345892575650289
 Root      5 :     4.960245092565043   Change is   -0.057789151486189
 Root      6 :     5.073858677570948   Change is   -0.231561885736487
 Root      7 :     5.178961382764975   Change is   -0.177728156514022
 Root      8 :     5.496422754663968   Change is   -0.154907914400825
 Root      9 :     5.714900172044723   Change is   -0.415329648624311
 Root     10 :     5.897845626449665   Change is   -0.191581944438005
 Root     11 :     6.054306641319139   Change is   -0.114730597301578
 Root     12 :     6.093452355136938   Change is   -0.219109772748928
 Root     13 :     6.226416142012189   Change is   -0.428540606110448
 Root     14 :     6.382020844468807   Change is   -0.179253593641424
 Root     15 :     6.468693540015492   Change is   -0.044845160153700
 Root     16 :     6.533970050949751   Change is   -0.235061282878839
 Root     17 :     6.591040555242573   Change is   -0.568675610103081
 Root     18 :     6.767109873152283   Change is   -0.091142629182015
 Root     19 :     6.799144735125691   Change is   -0.154738969773992
 Root     20 :     6.965633511198634   Change is   -0.225564221526758
 Iteration     3 Dimension   160 NMult   120 NNew     40
 CISAX will form    40 AO SS matrices at one time.
 NMat=    40 NSing=    40 JSym2X= 0.
 Root      1 not converged, maximum delta is    0.002602528364127
 Root      2 not converged, maximum delta is    0.004448171585633
 Root      3 not converged, maximum delta is    0.003523846768374
 Root      4 not converged, maximum delta is    0.018133560133984
 Root      5 not converged, maximum delta is    0.018963012497297
 Root      6 not converged, maximum delta is    0.009607112183393
 Root      7 not converged, maximum delta is    0.006822471859063
 Root      8 not converged, maximum delta is    0.010597711237032
 Root      9 not converged, maximum delta is    0.007399061320350
 Root     10 not converged, maximum delta is    0.005997507911033
 Root     11 not converged, maximum delta is    0.095855640810376
 Root     12 not converged, maximum delta is    0.076063312929370
 Root     13 not converged, maximum delta is    0.027898169634579
 Root     14 not converged, maximum delta is    0.011688841566294
 Root     15 not converged, maximum delta is    0.037430776260021
 Root     16 not converged, maximum delta is    0.084988856851493
 Root     17 not converged, maximum delta is    0.068292791918278
 Root     18 not converged, maximum delta is    0.052351369525416
 Root     19 not converged, maximum delta is    0.079392385371649
 Root     20 not converged, maximum delta is    0.128365105339528
 Excitation Energies [eV] at current iteration:
 Root      1 :     2.817127822350519   Change is   -0.006482605990408
 Root      2 :     4.132232768675433   Change is   -0.018648533909176
 Root      3 :     4.647394856102617   Change is   -0.006656976130546
 Root      4 :     4.841141359797483   Change is   -0.013521969240323
 Root      5 :     4.955692249027272   Change is   -0.004552843537771
 Root      6 :     5.061805036289868   Change is   -0.012053641281081
 Root      7 :     5.174047390168536   Change is   -0.004913992596439
 Root      8 :     5.485181265949747   Change is   -0.011241488714220
 Root      9 :     5.699351047880129   Change is   -0.015549124164594
 Root     10 :     5.889785867930001   Change is   -0.008059758519663
 Root     11 :     6.032385823756537   Change is   -0.021920817562602
 Root     12 :     6.082288618330453   Change is   -0.011163736806485
 Root     13 :     6.205603379887448   Change is   -0.020812762124741
 Root     14 :     6.373048903394452   Change is   -0.008971941074356
 Root     15 :     6.457112137181106   Change is   -0.011581402834386
 Root     16 :     6.494800774071865   Change is   -0.039169276877886
 Root     17 :     6.553496169820194   Change is   -0.037544385422379
 Root     18 :     6.762308536299027   Change is   -0.004801336853256
 Root     19 :     6.780282394595029   Change is   -0.018862340530662
 Root     20 :     6.922093985300165   Change is   -0.043539525898469
 Iteration     4 Dimension   200 NMult   160 NNew     40
 CISAX will form    40 AO SS matrices at one time.
 NMat=    40 NSing=    40 JSym2X= 0.
 Root      1 has converged.
 Root      2 has converged.
 Root      3 has converged.
 Root      4 has converged.
 Root      5 not converged, maximum delta is    0.001373803558565
 Root      6 not converged, maximum delta is    0.001066818413110
 Root      7 has converged.
 Root      8 not converged, maximum delta is    0.001012359928625
 Root      9 not converged, maximum delta is    0.001057238890474
 Root     10 has converged.
 Root     11 not converged, maximum delta is    0.003780960091486
 Root     12 not converged, maximum delta is    0.002682954692755
 Root     13 not converged, maximum delta is    0.003210010507982
 Root     14 not converged, maximum delta is    0.004475197389004
 Root     15 not converged, maximum delta is    0.003444445427957
 Root     16 not converged, maximum delta is    0.006648679633681
 Root     17 not converged, maximum delta is    0.004290454072999
 Root     18 not converged, maximum delta is    0.010126277983397
 Root     19 not converged, maximum delta is    0.016830809418089
 Root     20 not converged, maximum delta is    0.016181251878521
 Excitation Energies [eV] at current iteration:
 Root      1 :     2.816889630398927   Change is   -0.000238191951591
 Root      2 :     4.131414557571480   Change is   -0.000818211103953
 Root      3 :     4.647102844375223   Change is   -0.000292011727394
 Root      4 :     4.840592554903893   Change is   -0.000548804893590
 Root      5 :     4.955421768618996   Change is   -0.000270480408275
 Root      6 :     5.061239269690532   Change is   -0.000565766599336
 Root      7 :     5.173773392465490   Change is   -0.000273997703046
 Root      8 :     5.484504411772355   Change is   -0.000676854177392
 Root      9 :     5.698267314791776   Change is   -0.001083733088353
 Root     10 :     5.889299750193312   Change is   -0.000486117736690
 Root     11 :     6.030859755146287   Change is   -0.001526068610250
 Root     12 :     6.081749368726297   Change is   -0.000539249604156
 Root     13 :     6.204260241867528   Change is   -0.001343138019920
 Root     14 :     6.372242791504526   Change is   -0.000806111889925
 Root     15 :     6.456236485453731   Change is   -0.000875651727375
 Root     16 :     6.492042984131318   Change is   -0.002757789940547
 Root     17 :     6.551329387351948   Change is   -0.002166782468246
 Root     18 :     6.761851541956251   Change is   -0.000456994342777
 Root     19 :     6.778326220642173   Change is   -0.001956173952856
 Root     20 :     6.918478312335022   Change is   -0.003615672965143
 Iteration     5 Dimension   228 NMult   200 NNew     28
 CISAX will form    28 AO SS matrices at one time.
 NMat=    28 NSing=    28 JSym2X= 0.
 Root      1 has converged.
 Root      2 has converged.
 Root      3 has converged.
 Root      4 has converged.
 Root      5 has converged.
 Root      6 has converged.
 Root      7 has converged.
 Root      8 has converged.
 Root      9 has converged.
 Root     10 has converged.
 Root     11 has converged.
 Root     12 has converged.
 Root     13 has converged.
 Root     14 has converged.
 Root     15 has converged.
 Root     16 has converged.
 Root     17 has converged.
 Root     18 has converged.
 Root     19 not converged, maximum delta is    0.001458741415484
 Root     20 not converged, maximum delta is    0.001994828242478
 Excitation Energies [eV] at current iteration:
 Root      1 :     2.816888182160090   Change is   -0.000001448238837
 Root      2 :     4.131404485989183   Change is   -0.000010071582297
 Root      3 :     4.647100431087862   Change is   -0.000002413287360
 Root      4 :     4.840584869215509   Change is   -0.000007685688383
 Root      5 :     4.955412669440655   Change is   -0.000009099178342
 Root      6 :     5.061215493394429   Change is   -0.000023776296102
 Root      7 :     5.173769479996349   Change is   -0.000003912469141
 Root      8 :     5.484476336410067   Change is   -0.000028075362288
 Root      9 :     5.698217847241380   Change is   -0.000049467550396
 Root     10 :     5.889291201603291   Change is   -0.000008548590020
 Root     11 :     6.030791176104542   Change is   -0.000068579041745
 Root     12 :     6.081722201800615   Change is   -0.000027166925681
 Root     13 :     6.204186588221158   Change is   -0.000073653646371
 Root     14 :     6.372190603676506   Change is   -0.000052187828020
 Root     15 :     6.456188019584728   Change is   -0.000048465869004
 Root     16 :     6.491898455900163   Change is   -0.000144528231156
 Root     17 :     6.551209887780728   Change is   -0.000119499571219
 Root     18 :     6.761818006542116   Change is   -0.000033535414135
 Root     19 :     6.778196567649753   Change is   -0.000129652992420
 Root     20 :     6.918222368618635   Change is   -0.000255943716386
 Iteration     6 Dimension   232 NMult   228 NNew      4
 CISAX will form     4 AO SS matrices at one time.
 NMat=     4 NSing=     4 JSym2X= 0.
 Root      1 has converged.
 Root      2 has converged.
 Root      3 has converged.
 Root      4 has converged.
 Root      5 has converged.
 Root      6 has converged.
 Root      7 has converged.
 Root      8 has converged.
 Root      9 has converged.
 Root     10 has converged.
 Root     11 has converged.
 Root     12 has converged.
 Root     13 has converged.
 Root     14 has converged.
 Root     15 has converged.
 Root     16 has converged.
 Root     17 has converged.
 Root     18 has converged.
 Root     19 has converged.
 Root     20 not converged, maximum delta is    0.001126550891518
 Excitation Energies [eV] at current iteration:
 Root      1 :     2.816888165207568   Change is   -0.000000016952523
 Root      2 :     4.131404408632420   Change is   -0.000000077356763
 Root      3 :     4.647100372652531   Change is   -0.000000058435332
 Root      4 :     4.840584788195219   Change is   -0.000000081020290
 Root      5 :     4.955412665364629   Change is   -0.000000004076025
 Root      6 :     5.061215441078273   Change is   -0.000000052316156
 Root      7 :     5.173769395132056   Change is   -0.000000084864293
 Root      8 :     5.484476301359101   Change is   -0.000000035050966
 Root      9 :     5.698217665771761   Change is   -0.000000181469619
 Root     10 :     5.889291120362942   Change is   -0.000000081240349
 Root     11 :     6.030791106836458   Change is   -0.000000069268085
 Root     12 :     6.081721810685753   Change is   -0.000000391114862
 Root     13 :     6.204186240481253   Change is   -0.000000347739905
 Root     14 :     6.372190562594349   Change is   -0.000000041082158
 Root     15 :     6.456187967131264   Change is   -0.000000052453463
 Root     16 :     6.491893193704275   Change is   -0.000005262195887
 Root     17 :     6.551208794453385   Change is   -0.000001093327344
 Root     18 :     6.761817038198384   Change is   -0.000000968343732
 Root     19 :     6.778187230104189   Change is   -0.000009337545564
 Root     20 :     6.918195084640654   Change is   -0.000027283977981
 Iteration     7 Dimension   234 NMult   232 NNew      2
 CISAX will form     2 AO SS matrices at one time.
 NMat=     2 NSing=     2 JSym2X= 0.
 Root      1 has converged.
 Root      2 has converged.
 Root      3 has converged.
 Root      4 has converged.
 Root      5 has converged.
 Root      6 has converged.
 Root      7 has converged.
 Root      8 has converged.
 Root      9 has converged.
 Root     10 has converged.
 Root     11 has converged.
 Root     12 has converged.
 Root     13 has converged.
 Root     14 has converged.
 Root     15 has converged.
 Root     16 has converged.
 Root     17 has converged.
 Root     18 has converged.
 Root     19 has converged.
 Root     20 has converged.
 Excitation Energies [eV] at current iteration:
 Root      1 :     2.816888156394204   Change is   -0.000000008813363
 Root      2 :     4.131404379691999   Change is   -0.000000028940422
 Root      3 :     4.647100150095706   Change is   -0.000000222556825
 Root      4 :     4.840584776529649   Change is   -0.000000011665570
 Root      5 :     4.955412664261416   Change is   -0.000000001103214
 Root      6 :     5.061215434684649   Change is   -0.000000006393625
 Root      7 :     5.173769209635014   Change is   -0.000000185497042
 Root      8 :     5.484476287184482   Change is   -0.000000014174619
 Root      9 :     5.698217652315289   Change is   -0.000000013456472
 Root     10 :     5.889290913975908   Change is   -0.000000206387034
 Root     11 :     6.030791098449364   Change is   -0.000000008387093
 Root     12 :     6.081721734994850   Change is   -0.000000075690903
 Root     13 :     6.204186198854890   Change is   -0.000000041626363
 Root     14 :     6.372190558737510   Change is   -0.000000003856838
 Root     15 :     6.456187961165649   Change is   -0.000000005965614
 Root     16 :     6.491892760833072   Change is   -0.000000432871203
 Root     17 :     6.551208788255115   Change is   -0.000000006198269
 Root     18 :     6.761817000305153   Change is   -0.000000037893231
 Root     19 :     6.778186787650877   Change is   -0.000000442453312
 Root     20 :     6.918191204212974   Change is   -0.000003880427681
 Convergence achieved on expansion vectors.
 ***********************************************************************
 Excited states from <AA,BB:AA,BB> singles matrix:
 ***********************************************************************
 
 1PDM for each excited state written to RWF  633
 Ground to excited state transition densities written to RWF  633
 Ground to excited state transition electric dipole moments (Au):
       state          X           Y           Z        Dip. S.      Osc.
         1        -1.0056      0.1484     -0.2218      1.0824      0.0747
         2        -1.8263      0.5290      0.0918      3.6236      0.3668
         3        -0.4752      0.0507      0.0192      0.2288      0.0260
         4        -0.2278      0.3143     -0.3493      0.2727      0.0323
         5         0.1294      0.0494     -0.2538      0.0836      0.0102
         6        -0.9252     -0.9663      0.1030      1.8003      0.2232
         7         0.4870     -0.4019     -0.0721      0.4039      0.0512
         8        -0.2754     -0.1422      0.4879      0.3341      0.0449
         9        -0.2071     -0.8124     -0.2105      0.7472      0.1043
        10        -0.1643     -0.5099      0.0132      0.2872      0.0414
        11         0.0203     -1.2938     -0.1947      1.7123      0.2530
        12         0.2423     -0.6339     -0.0636      0.4646      0.0692
        13         0.3456      0.8331     -0.2594      0.8808      0.1339
        14        -0.4562     -0.0348      0.1131      0.2221      0.0347
        15         0.2446      0.4169     -0.2397      0.2910      0.0460
        16        -1.1713     -0.6891     -0.0384      1.8483      0.2940
        17         0.1701      0.0568     -0.3839      0.1796      0.0288
        18         0.3956      0.0591      0.0706      0.1649      0.0273
        19         0.9463      0.2169      0.1021      0.9529      0.1582
        20         1.0180      0.4330     -0.0219      1.2244      0.2075
 Ground to excited state transition velocity dipole moments (Au):
       state          X           Y           Z        Dip. S.      Osc.
         1         0.1031     -0.0205      0.0340      0.0122      0.0786
         2         0.2703     -0.0765     -0.0140      0.0791      0.3473
         3         0.0806     -0.0124     -0.0048      0.0067      0.0261
         4         0.0379     -0.0545      0.0631      0.0084      0.0315
         5        -0.0249     -0.0105      0.0482      0.0031      0.0112
         6         0.1733      0.1735     -0.0231      0.0607      0.2174
         7        -0.0932      0.0740      0.0136      0.0144      0.0503
         8         0.0584      0.0288     -0.1021      0.0147      0.0485
         9         0.0487      0.1695      0.0419      0.0329      0.1046
        10         0.0345      0.1106     -0.0012      0.0134      0.0413
        11        -0.0108      0.2852      0.0465      0.0836      0.2516
        12        -0.0552      0.1396      0.0171      0.0228      0.0681
        13        -0.0776     -0.1864      0.0551      0.0438      0.1280
        14         0.1039      0.0108     -0.0289      0.0117      0.0334
        15        -0.0566     -0.0981      0.0609      0.0165      0.0464
        16         0.2760      0.1625      0.0093      0.1027      0.2869
        17        -0.0417     -0.0142      0.0903      0.0101      0.0279
        18        -0.0982     -0.0151     -0.0133      0.0101      0.0270
        19        -0.2350     -0.0575     -0.0267      0.0592      0.1586
        20        -0.2604     -0.1089      0.0038      0.0797      0.2090
 Ground to excited state transition magnetic dipole moments (Au):
       state          X           Y           Z
         1        -1.1601     -0.1832      0.4899
         2         0.4704     -0.4871      1.5118
         3         0.1252     -0.1856      0.5595
         4         0.0493     -0.3203      1.3403
         5         0.1302     -0.4795      0.4445
         6        -0.0318     -0.3861     -0.4557
         7         0.0357      0.0768     -0.2012
         8        -0.0711      1.0166     -0.1688
         9         0.1851     -0.2203     -0.0636
        10        -0.2005     -0.3456     -0.6883
        11         0.4754     -0.4446      0.1973
        12         0.0829     -0.2401     -0.6240
        13        -0.1403     -0.1908     -0.1101
        14         0.3529      0.1046      0.6209
        15        -0.0202     -0.4740      0.0549
        16        -0.0949     -0.4227      0.4062
        17         0.1213     -0.0419      1.2723
        18        -0.1335     -0.1781      0.1946
        19         0.1501      0.6657     -0.1343
        20         0.3413      0.8366      0.3665
 Ground to excited state transition velocity quadrupole moments (Au):
       state          XX          YY          ZZ          XY          XZ          YZ
         1         0.1911      0.0027     -0.0754     -0.0580      0.0964     -0.0889
         2         0.1219     -0.3866      0.1883     -0.1795      0.1067      0.2954
         3        -0.1948      0.0306      0.0430      0.1504      0.1237      0.0081
         4         1.1925     -0.3669      0.0628      0.3119      0.1217      0.0763
         5         0.2913     -0.1291      0.0588      0.1826      0.1892     -0.0109
         6        -0.0221     -0.1043      0.0827     -0.2588      0.1235     -0.0865
         7         0.2817      0.2549     -0.0349     -0.2665     -0.0481     -0.0368
         8         0.6732      0.0831     -0.1681     -0.1184     -0.5570      0.0723
         9         0.6797     -0.1828      0.0944      0.3029      0.2492     -0.1617
        10        -0.6941      0.3408      0.0003     -0.2281      0.1722     -0.1854
        11        -0.7215      0.9361      0.0488     -1.1574      0.3776     -0.0531
        12        -0.6938      0.6605     -0.0738     -0.3981      0.1967     -0.1142
        13         0.0687     -0.6642      0.0446      0.8947      0.2005     -0.0496
        14         0.1157     -0.2195      0.0124     -0.0050     -0.0098      0.0567
        15        -0.3674     -0.3946      0.1135      0.3205      0.3445      0.0041
        16         0.1393      0.2233      0.1344      0.3595      0.3818     -0.1160
        17         1.9174     -0.8406      0.0499      0.0814      0.1254      0.2922
        18         0.2136     -0.1753     -0.0868     -0.2669      0.0188     -0.1803
        19        -0.8042      0.2831     -0.1652     -0.7217     -0.3946      0.1103
        20         0.4824     -0.1536     -0.1912     -0.7083     -0.4745      0.2529
 <0|del|b> * <b|rxdel|0> + <0|del|b> * <b|delr+rdel|0>
 Rotatory Strengths (R) in cgs (10**-40 erg-esu-cm/Gauss)
       state          XX          YY          ZZ    R(velocity)    E-M Angle
         1        69.8468   -375.9936   -371.0282   -225.7250      134.84
         2        62.5001    427.0466    177.9201    222.4889       72.08
         3         0.9832     18.2326     21.1423     13.4527       78.59
         4       255.1558    138.4853     19.4899    137.7104       34.66
         5        72.3312     18.7745     -0.9096     30.0654       50.93
         6      -136.7586    -30.3453    -68.5954    -78.5664      114.89
         7         5.3520      1.8548     -8.6262     -0.4732       90.84
         8       130.9335      9.1524      8.5237     49.5365       70.21
         9      -117.4982    -23.9676     36.7895    -34.8921      125.47
        10       -91.6878    -20.8317    -32.1765    -48.2320      118.71
        11      -445.4116     93.2391    -39.5724   -130.5816      128.62
        12      -124.1314     -3.3755    -26.7988    -51.4353      118.63
        13       180.1288    -63.0065      8.1082     41.7435       42.37
        14       -25.0168     36.9582     48.0129     19.9848       75.30
        15       153.7051    -22.7374     20.9711     50.6463       33.88
        16      -183.1838    -85.6074     -1.2095    -90.0002      118.60
        17       182.9989    132.5860      8.7307    108.1052       30.75
        18         5.5831     35.1665     -3.1244     12.5417       63.51
        19       -54.0732   -109.1156    -35.3856    -66.1915      114.40
        20      -200.3749   -209.5806    -86.8837   -165.6131      130.46
 1/2[<0|r|b>*<b|rxdel|0> + (<0|rxdel|b>*<b|r|0>)*]
 Rotatory Strengths (R) in cgs (10**-40 erg-esu-cm/Gauss)
       state          XX          YY          ZZ     R(length)
         1      -824.9815     19.2228     76.8283   -242.9768
         2       607.5513    182.2072    -98.1908    230.5226
         3        42.0826      6.6598     -7.5834     13.7197
         4         7.9404     71.2039    331.0528    136.7324
         5       -11.9117     16.7472     79.7837     28.2064
         6       -20.8322   -263.8417     33.1878    -83.8287
         7       -12.2888     21.8161    -10.2553     -0.2427
         8       -13.8447    102.1925     58.2308     48.8595
         9        27.1050   -126.5776     -9.4628    -36.3118
        10       -23.2934   -124.6256      6.4129    -47.1687
        11        -6.8131   -406.7877     27.1591   -128.8139
        12       -14.1980   -107.6374    -28.0440    -49.9598
        13        34.2833    112.4018    -20.1954     42.1632
        14       113.8500      2.5713    -49.6623     22.2530
        15         3.4887    139.7364      9.3100     50.8450
        16       -78.5742   -206.0188     11.0222    -91.1903
        17       -14.5989      1.6825    345.4242    110.8359
        18        37.3525      7.4419     -9.7208     11.6912
        19      -100.4503   -102.1080      9.6970    -64.2871
        20      -245.7194   -256.1786      5.6685   -165.4098
  1/2[<0|del|b>*<b|r|0> + (<0|r|b>*<b|del|0>)*] (Au)
       state          X           Y           Z        Dip. S.   Osc.(frdel)
         1        -0.1036     -0.0030     -0.0076      0.1142      0.0762
         2        -0.4936     -0.0405     -0.0013      0.5353      0.3569
         3        -0.0383     -0.0006     -0.0001      0.0390      0.0260
         4        -0.0086     -0.0171     -0.0220      0.0478      0.0319
         5        -0.0032     -0.0005     -0.0122      0.0160      0.0107
         6        -0.1603     -0.1676     -0.0024      0.3303      0.2202
         7        -0.0454     -0.0298     -0.0010      0.0761      0.0508
         8        -0.0161     -0.0041     -0.0498      0.0700      0.0467
         9        -0.0101     -0.1377     -0.0088      0.1566      0.1044
        10        -0.0057     -0.0564     -0.0000      0.0621      0.0414
        11        -0.0002     -0.3690     -0.0091      0.3783      0.2522
        12        -0.0134     -0.0885     -0.0011      0.1029      0.0686
        13        -0.0268     -0.1553     -0.0143      0.1964      0.1309
        14        -0.0474     -0.0004     -0.0033      0.0510      0.0340
        15        -0.0138     -0.0409     -0.0146      0.0693      0.0462
        16        -0.3232     -0.1120     -0.0004      0.4356      0.2904
        17        -0.0071     -0.0008     -0.0347      0.0426      0.0284
        18        -0.0389     -0.0009     -0.0009      0.0407      0.0271
        19        -0.2224     -0.0125     -0.0027      0.2376      0.1584
        20        -0.2651     -0.0472     -0.0001      0.3124      0.2083

 Excitation energies and oscillator strengths:
 
 Excited State   1:      Singlet-A      2.8169 eV  440.15 nm  f=0.0747  <S**2>=0.000
      62 -> 67        -0.17027
      63 -> 67         0.12772
      64 -> 67         0.25067
      65 -> 67         0.26743
      66 -> 67         0.54266
 This state for optimization and/or second-order correction.
 Total Energy, E(TD-HF/TD-DFT) =  -782.601421508    
 Copying the excited state density for this state as the 1-particle RhoCI density.
 
 Excited State   2:      Singlet-A      4.1314 eV  300.10 nm  f=0.3668  <S**2>=0.000
      62 -> 67         0.14383
      63 -> 67        -0.16289
      64 -> 67        -0.34093
      65 -> 67        -0.33328
      66 -> 67         0.43212
 
 Excited State   3:      Singlet-A      4.6471 eV  266.80 nm  f=0.0260  <S**2>=0.000
      63 -> 67        -0.13903
      64 -> 67        -0.31631
      64 -> 68         0.11711
      65 -> 67         0.43014
      66 -> 68        -0.38806
 
 Excited State   4:      Singlet-A      4.8406 eV  256.13 nm  f=0.0323  <S**2>=0.000
      62 -> 67         0.29404
      63 -> 67        -0.32341
      65 -> 67         0.22609
      65 -> 68        -0.12313
      66 -> 68         0.41695
      66 -> 69        -0.16791
 
[...]
     5  C    0.000014   0.000041   0.001197  -0.000228  -0.000971   0.000003
     6  C   -0.000392   0.007660  -0.001041   0.000074  -0.000201  -0.000001
     7  C   -0.039036   0.007592  -0.003581  -0.007538  -0.007751  -0.000605
     8  C    0.007681  -0.040361  -0.000005   0.000001   0.000072  -0.000001
     9  C    0.421357  -0.040732  -0.000337  -0.000109   0.000044  -0.000018
    10  H   -0.007732  -0.000259  -0.003746   0.000226  -0.004727   0.001700
    11  C   -0.043184   0.421830  -0.000015  -0.000012  -0.000124   0.000000
    12  H   -0.000247  -0.006825   0.000000   0.000000   0.000003  -0.000000
    13  H    0.546071  -0.007220  -0.000071   0.000012  -0.000031   0.000115
    14  H   -0.007220   0.541257   0.000001   0.000000   0.000001  -0.000000
    15  C   -0.000071   0.000001   5.162133   0.446715   0.403561  -0.056571
    16  C    0.000012   0.000000   0.446715   4.887829  -0.016818   0.528990
    17  C   -0.000031   0.000001   0.403561  -0.016818   4.993736  -0.041143
    18  C    0.000115  -0.000000  -0.056571   0.528990  -0.041143   4.861111
    19  H    0.000001  -0.000000  -0.065510   0.425673   0.011426  -0.035096
    20  C    0.000084  -0.000001  -0.031453  -0.044216   0.466683  -0.057210
    21  H    0.000001  -0.000000  -0.051661   0.007022   0.428807  -0.000888
    22  C    0.000138  -0.000000  -0.046293  -0.061611  -0.054193   0.514129
    23  H    0.000003  -0.000000   0.008739  -0.039989  -0.001314   0.422915
    24  H    0.000003  -0.000000   0.006707  -0.000061  -0.035468   0.006155
    25  H    0.000002  -0.000000  -0.000993   0.007074   0.007824  -0.040307
    26  N    0.000005  -0.000169  -0.000013   0.000001   0.000056   0.000000
    27  C   -0.000000  -0.000031  -0.000001  -0.000000  -0.000001   0.000000
    28  H   -0.000000   0.000005   0.000000   0.000000  -0.000003  -0.000000
    29  H    0.000000  -0.000000  -0.000000   0.000000   0.000001  -0.000000
    30  H    0.000000  -0.000001   0.000000  -0.000000  -0.000001   0.000000
    31  C   -0.000000   0.000000   0.000028  -0.000001   0.000008   0.000000
    32  H    0.000000   0.000000   0.000007  -0.000000  -0.000006  -0.000000
    33  H   -0.000000   0.000000   0.000281  -0.000023  -0.000026   0.000000
    34  H    0.000000  -0.000000  -0.000025   0.000000   0.000052   0.000000
              19         20         21         22         23         24
     1  N   -0.000106   0.000034   0.001609   0.000005   0.000009   0.000016
     2  N    0.008482   0.008315  -0.008712  -0.000482  -0.000178  -0.000163
     3  C    0.000440  -0.002902   0.007628   0.000062  -0.000004   0.000013
     4  C   -0.000188   0.000292  -0.001069   0.000109   0.000008   0.000001
     5  C   -0.000025  -0.000024  -0.000788   0.000000  -0.000000  -0.000003
     6  C    0.000013  -0.000039   0.000118   0.000006   0.000000  -0.000000
     7  C   -0.000034   0.002651  -0.001024  -0.000769   0.000047   0.000159
     8  C    0.000000   0.000004   0.000031  -0.000001   0.000000  -0.000001
     9  C    0.000002   0.000241  -0.000022  -0.000065  -0.000002   0.000050
    10  H    0.000429  -0.002605   0.000211   0.000694   0.000023   0.000018
    11  C   -0.000001  -0.000008   0.000005   0.000014  -0.000000  -0.000004
    12  H    0.000000  -0.000000   0.000001  -0.000000   0.000000   0.000000
    13  H    0.000001   0.000084   0.000001   0.000138   0.000003   0.000003
    14  H   -0.000000  -0.000001  -0.000000  -0.000000  -0.000000  -0.000000
    15  C   -0.065510  -0.031453  -0.051661  -0.046293   0.008739   0.006707
    16  C    0.425673  -0.044216   0.007022  -0.061611  -0.039989  -0.000061
    17  C    0.011426   0.466683   0.428807  -0.054193  -0.001314  -0.035468
    18  C   -0.035096  -0.057210  -0.000888   0.514129   0.422915   0.006155
    19  H    0.542587  -0.002406  -0.000053   0.008423  -0.008192   0.000070
    20  C   -0.002406   4.906258  -0.033444   0.511556   0.007282   0.417801
    21  H   -0.000053  -0.033444   0.521949   0.006942   0.000041  -0.006781
    22  C    0.008423   0.511556   0.006942   4.897875  -0.041332  -0.039414
    23  H   -0.008192   0.007282   0.000041  -0.041332   0.535366  -0.000284
    24  H    0.000070   0.417801  -0.006781  -0.039414  -0.000284   0.534398
    25  H   -0.000188  -0.040025  -0.000212   0.423544  -0.007017  -0.006819
    26  N    0.000000   0.000004  -0.000012  -0.000000   0.000000   0.000000
    27  C   -0.000000   0.000000  -0.000011   0.000000   0.000000   0.000000
    28  H    0.000000  -0.000000   0.000003   0.000000  -0.000000  -0.000000
    29  H   -0.000000   0.000000  -0.000000  -0.000000   0.000000   0.000000
    30  H    0.000000  -0.000000  -0.000000   0.000000  -0.000000   0.000000
    31  C   -0.000000   0.000002   0.000060   0.000000  -0.000000  -0.000000
    32  H    0.000000  -0.000000   0.000001   0.000000  -0.000000  -0.000000
    33  H   -0.000007   0.000003  -0.000068  -0.000000  -0.000000  -0.000000
    34  H   -0.000000   0.000001  -0.000027  -0.000000   0.000000   0.000000
              25         26         27         28         29         30
     1  N   -0.000000   0.001881  -0.000044  -0.000002   0.000008  -0.000005
     2  N    0.000007  -0.000052   0.000004  -0.000001  -0.000000   0.000000
     3  C    0.000003  -0.060690   0.008626  -0.000723   0.000227   0.000952
     4  C   -0.000003  -0.050642   0.007026   0.000965   0.000135  -0.000802
     5  C   -0.000000   0.439326  -0.061937   0.005223   0.001864  -0.015393
     6  C   -0.000000   0.397516  -0.066351  -0.008572  -0.003225   0.006842
     7  C    0.000010   0.007046  -0.000172   0.000039  -0.000040   0.000007
     8  C    0.000000  -0.053471  -0.005608   0.001360   0.001454   0.000199
     9  C    0.000008   0.000053   0.000019  -0.000045  -0.000012   0.000000
    10  H    0.000026  -0.000070   0.000016   0.000001  -0.000001  -0.000001
    11  C    0.000000   0.004519  -0.000050   0.000215  -0.000056   0.000016
    12  H    0.000000  -0.005630   0.003350  -0.000776  -0.000145   0.000006
    13  H    0.000002   0.000005  -0.000000  -0.000000   0.000000   0.000000
    14  H   -0.000000  -0.000169  -0.000031   0.000005  -0.000000  -0.000001
    15  C   -0.000993  -0.000013  -0.000001   0.000000  -0.000000   0.000000
    16  C    0.007074   0.000001  -0.000000   0.000000   0.000000  -0.000000
    17  C    0.007824   0.000056  -0.000001  -0.000003   0.000001  -0.000001
    18  C   -0.040307   0.000000   0.000000  -0.000000  -0.000000   0.000000
    19  H   -0.000188   0.000000  -0.000000   0.000000  -0.000000   0.000000
    20  C   -0.040025   0.000004   0.000000  -0.000000   0.000000  -0.000000
    21  H   -0.000212  -0.000012  -0.000011   0.000003  -0.000000  -0.000000
    22  C    0.423544  -0.000000   0.000000   0.000000  -0.000000   0.000000
    23  H   -0.007017   0.000000   0.000000  -0.000000   0.000000  -0.000000
    24  H   -0.006819   0.000000   0.000000  -0.000000   0.000000   0.000000
    25  H    0.534540   0.000000   0.000000   0.000000  -0.000000   0.000000
    26  N    0.000000   6.631279   0.289990  -0.031182  -0.037104  -0.016589
    27  C    0.000000   0.289990   4.782401   0.409109   0.410282   0.407261
    28  H    0.000000  -0.031182   0.409109   0.532784  -0.034669  -0.021558
    29  H   -0.000000  -0.037104   0.410282  -0.034669   0.533393  -0.022434
    30  H    0.000000  -0.016589   0.407261  -0.021558  -0.022434   0.510302
    31  C   -0.000000  -0.047469  -0.006283   0.000201  -0.000292   0.003488
    32  H    0.000000  -0.003593  -0.000534   0.000189  -0.000204  -0.001644
    33  H    0.000000   0.004221   0.000418  -0.000003  -0.000028   0.000228
    34  H   -0.000000  -0.001691  -0.000639   0.000009   0.000017  -0.000343
              31         32         33         34
     1  N   -0.002069   0.000082   0.027294  -0.000286
     2  N    0.000039  -0.000037  -0.002056   0.000146
     3  C   -0.069137   0.002779  -0.017904   0.000852
     4  C    0.014903   0.000824   0.004415  -0.000803
     5  C    0.322959  -0.044120  -0.031827  -0.035992
     6  C    0.002462  -0.000936  -0.000935  -0.000006
     7  C    0.000146   0.000038   0.000066  -0.000007
     8  C   -0.000186  -0.000035  -0.000004   0.000019
     9  C   -0.000003  -0.000002  -0.000001   0.000000
    10  H   -0.000002   0.000001   0.000003  -0.000001
    11  C    0.000011   0.000000   0.000001  -0.000001
    12  H   -0.000020  -0.000005  -0.000001   0.000000
    13  H   -0.000000   0.000000  -0.000000   0.000000
    14  H    0.000000   0.000000   0.000000  -0.000000
    15  C    0.000028   0.000007   0.000281  -0.000025
    16  C   -0.000001  -0.000000  -0.000023   0.000000
    17  C    0.000008  -0.000006  -0.000026   0.000052
    18  C    0.000000  -0.000000   0.000000   0.000000
    19  H   -0.000000   0.000000  -0.000007  -0.000000
    20  C    0.000002  -0.000000   0.000003   0.000001
    21  H    0.000060   0.000001  -0.000068  -0.000027
    22  C    0.000000   0.000000  -0.000000  -0.000000
    23  H   -0.000000  -0.000000  -0.000000   0.000000
    24  H   -0.000000  -0.000000  -0.000000   0.000000
    25  H   -0.000000   0.000000   0.000000  -0.000000
    26  N   -0.047469  -0.003593   0.004221  -0.001691
    27  C   -0.006283  -0.000534   0.000418  -0.000639
    28  H    0.000201   0.000189  -0.000003   0.000009
    29  H   -0.000292  -0.000204  -0.000028   0.000017
    30  H    0.003488  -0.001644   0.000228  -0.000343
    31  C    4.829546   0.414007   0.407272   0.404513
    32  H    0.414007   0.534377  -0.017667  -0.029562
    33  H    0.407272  -0.017667   0.510246  -0.021372
    34  H    0.404513  -0.029562  -0.021372   0.533582
 Mulliken charges:
               1
     1  N   -0.188634
     2  N   -0.201644
     3  C   -0.118385
     4  C   -0.055487
     5  C    0.234995
     6  C    0.200640
     7  C   -0.058469
     8  C   -0.085620
     9  C   -0.142092
    10  H    0.129074
    11  C   -0.131139
    12  H    0.129496
    13  H    0.113946
    14  H    0.117797
    15  C   -0.057863
    16  C   -0.085969
    17  C   -0.046279
    18  C   -0.107034
    19  H    0.114260
    20  C   -0.106877
    21  H    0.130346
    22  C   -0.119337
    23  H    0.123879
    24  H    0.123609
    25  H    0.122526
    26  N   -0.467520
    27  C   -0.176841
    28  H    0.147430
    29  H    0.150828
    30  H    0.149469
    31  C   -0.274181
    32  H    0.146040
    33  H    0.137474
    34  H    0.151562
 Sum of Mulliken charges =  -0.00000
 Mulliken charges with hydrogens summed into heavy atoms:
               1
     1  N   -0.188634
     2  N   -0.201644
     3  C   -0.118385
     4  C   -0.055487
     5  C    0.234995
     6  C    0.200640
     7  C    0.070606
     8  C    0.043875
     9  C   -0.028146
    11  C   -0.013342
    15  C   -0.057863
    16  C    0.028291
    17  C    0.084067
    18  C    0.016845
    20  C    0.016732
    22  C    0.003189
    26  N   -0.467520
    27  C    0.270887
    31  C    0.160895
 Electronic spatial extent (au):  <R**2>=           4800.5802
 Charge=             -0.0000 electrons
 Dipole moment (field-independent basis, Debye):
    X=             -5.3300    Y=              2.7815    Z=              2.7136  Tot=              6.5962
 Quadrupole moment (field-independent basis, Debye-Ang):
   XX=            -82.4101   YY=           -115.1750   ZZ=           -110.2732
   XY=             11.1706   XZ=             -5.7997   YZ=             -3.4716
 Traceless Quadrupole moment (field-independent basis, Debye-Ang):
   XX=             20.2093   YY=            -12.5556   ZZ=             -7.6537
   XY=             11.1706   XZ=             -5.7997   YZ=             -3.4716
 Octapole moment (field-independent basis, Debye-Ang**2):
  XXX=            -86.9817  YYY=             36.3785  ZZZ=             13.3011  XYY=            -36.1015
  XXY=             16.5875  XXZ=              9.5607  XZZ=              6.2158  YZZ=             -2.9094
  YYZ=             13.1290  XYZ=              1.7401
 Hexadecapole moment (field-independent basis, Debye-Ang**3):
 XXXX=          -3693.3043 YYYY=          -1874.9707 ZZZZ=           -485.8482 XXXY=            153.9417
 XXXZ=           -118.7960 YYYX=             53.2178 YYYZ=            -44.8806 ZZZX=            -12.6483
 ZZZY=             15.1750 XXYY=           -977.5605 XXZZ=           -749.0775 YYZZ=           -426.6826
 XXYZ=             27.4061 YYXZ=             -8.7866 ZZXY=             25.9914
 N-N= 1.356751565805D+03 E-N=-4.533696305500D+03  KE= 7.800944137367D+02
 Leave Link  601 at Wed Jan 22 11:28:02 2025, MaxMem= 25501368320 cpu:               6.0 elap:               0.3
 (Enter /share/Apps/gaussian/g16/l9999.exe)
 Electronic transition elements 
                 1             2             3             4             5 
      1  -0.782601D+03 -0.782553D+03 -0.782534D+03 -0.782527D+03 -0.782523D+03
      2  -0.100557D+01 -0.182627D+01 -0.475201D+00 -0.227756D+00  0.129398D+00
      3   0.148368D+00  0.529015D+00  0.507325D-01  0.314326D+00  0.493848D-01
      4  -0.221757D+00  0.918467D-01  0.191663D-01 -0.349278D+00 -0.253836D+00
      5   0.103066D+00  0.270261D+00  0.806247D-01  0.379345D-01 -0.248666D-01
      6  -0.205374D-01 -0.765285D-01 -0.124493D-01 -0.545172D-01 -0.104729D-01
      7   0.340473D-01 -0.139637D-01 -0.475630D-02  0.631120D-01  0.482420D-01
      8  -0.116014D+01  0.470432D+00  0.125229D+00  0.493004D-01  0.130175D+00
      9  -0.183213D+00 -0.487053D+00 -0.185634D+00 -0.320334D+00 -0.479543D+00
     10   0.489917D+00  0.151177D+01  0.559508D+00  0.134031D+01  0.444467D+00
     11   0.191147D+00  0.121868D+00 -0.194848D+00  0.119246D+01  0.291268D+00
     12   0.270288D-02 -0.386620D+00  0.306477D-01 -0.366857D+00 -0.129068D+00
     13  -0.753620D-01  0.188311D+00  0.429794D-01  0.627785D-01  0.588448D-01
     14  -0.579852D-01 -0.179453D+00  0.150419D+00  0.311877D+00  0.182565D+00
     15   0.964241D-01  0.106730D+00  0.123743D+00  0.121665D+00  0.189231D+00
     16  -0.889034D-01  0.295445D+00  0.812975D-02  0.763318D-01 -0.109329D-01
                 6             7             8             9            10 
      1  -0.782519D+03 -0.782515D+03 -0.782503D+03 -0.782496D+03 -0.782489D+03
      2  -0.925192D+00  0.487042D+00 -0.275359D+00 -0.207086D+00 -0.164278D+00
      3  -0.966279D+00 -0.401881D+00 -0.142154D+00 -0.812399D+00 -0.509903D+00
      4   0.102986D+00 -0.720951D-01  0.487886D+00 -0.210500D+00  0.131759D-01
      5   0.173288D+00 -0.932173D-01  0.583906D-01  0.487112D-01  0.345092D-01
      6   0.173486D+00  0.740428D-01  0.287894D-01  0.169531D+00  0.110557D+00
      7  -0.230654D-01  0.136193D-01 -0.102150D+00  0.418511D-01 -0.122891D-02
      8  -0.318407D-01  0.356797D-01 -0.710989D-01  0.185088D+00 -0.200508D+00
      9  -0.386118D+00  0.767643D-01  0.101657D+01 -0.220326D+00 -0.345619D+00
     10  -0.455702D+00 -0.201151D+00 -0.168777D+00 -0.635694D-01 -0.688257D+00
     11  -0.220999D-01  0.281694D+00  0.673181D+00  0.679713D+00 -0.694104D+00
     12  -0.104261D+00  0.254916D+00  0.831266D-01 -0.182786D+00  0.340796D+00
     13   0.826925D-01 -0.349214D-01 -0.168058D+00  0.944285D-01  0.280117D-03
     14  -0.258825D+00 -0.266495D+00 -0.118366D+00  0.302852D+00 -0.228091D+00
     15   0.123550D+00 -0.481220D-01 -0.557049D+00  0.249213D+00  0.172197D+00
     16  -0.864808D-01 -0.368321D-01  0.722574D-01 -0.161672D+00 -0.185375D+00
                11            12            13            14            15 
      1  -0.782483D+03 -0.782481D+03 -0.782477D+03 -0.782471D+03 -0.782468D+03
      2   0.202652D-01  0.242286D+00  0.345569D+00 -0.456203D+00  0.244583D+00
      3  -0.129381D+01 -0.633886D+00  0.833097D+00 -0.347659D-01  0.416870D+00
      4  -0.194704D+00 -0.635566D-01 -0.259403D+00  0.113097D+00 -0.239662D+00
      5  -0.107837D-01 -0.552165D-01 -0.775598D-01  0.103912D+00 -0.565983D-01
      6   0.285242D+00  0.139572D+00 -0.186385D+00  0.107999D-01 -0.980801D-01
      7   0.465052D-01  0.171138D-01  0.550929D-01 -0.289021D-01  0.608797D-01
      8   0.475418D+00  0.828662D-01 -0.140290D+00  0.352902D+00 -0.201704D-01
      9  -0.444606D+00 -0.240121D+00 -0.190791D+00  0.104588D+00 -0.474011D+00
     10   0.197251D+00 -0.623962D+00 -0.110093D+00  0.620947D+00  0.549324D-01
     11  -0.721514D+00 -0.693754D+00  0.686785D-01  0.115660D+00 -0.367386D+00
     12   0.936149D+00  0.660491D+00 -0.664221D+00 -0.219538D+00 -0.394608D+00
     13   0.487627D-01 -0.738353D-01  0.446460D-01  0.123878D-01  0.113471D+00
     14  -0.115737D+01 -0.398088D+00  0.894683D+00 -0.495584D-02  0.320528D+00
     15   0.377628D+00  0.196729D+00  0.200478D+00 -0.977497D-02  0.344515D+00
     16  -0.530773D-01 -0.114232D+00 -0.495984D-01  0.567427D-01  0.405393D-02
                16            17            18            19            20 
      1  -0.782466D+03 -0.782464D+03 -0.782456D+03 -0.782456D+03 -0.782451D+03
      2  -0.117129D+01  0.170133D+00  0.395553D+00  0.946259D+00  0.101805D+01
      3  -0.689134D+00  0.568145D-01  0.591035D-01  0.216889D+00  0.433008D+00
      4  -0.383668D-01 -0.383917D+00  0.706231D-01  0.102100D+00 -0.218732D-01
      5   0.275964D+00 -0.417120D-01 -0.982316D-01 -0.235010D+00 -0.260448D+00
      6   0.162514D+00 -0.141731D-01 -0.150683D-01 -0.574552D-01 -0.108906D+00
      7   0.933499D-02  0.902924D-01 -0.132504D-01 -0.266701D-01  0.377561D-02
      8  -0.948621D-01  0.121343D+00 -0.133535D+00  0.150114D+00  0.341312D+00
      9  -0.422749D+00 -0.418772D-01 -0.178052D+00  0.665735D+00  0.836615D+00
     10   0.406250D+00  0.127231D+01  0.194641D+00 -0.134303D+00  0.366469D+00
     11   0.139329D+00  0.191738D+01  0.213586D+00 -0.804236D+00  0.482368D+00
     12   0.223301D+00 -0.840631D+00 -0.175267D+00  0.283107D+00 -0.153569D+00
     13   0.134385D+00  0.498907D-01 -0.868081D-01 -0.165248D+00 -0.191203D+00
     14   0.359549D+00  0.814255D-01 -0.266855D+00 -0.721667D+00 -0.708300D+00
     15   0.381788D+00  0.125381D+00  0.188438D-01 -0.394614D+00 -0.474483D+00
     16  -0.116027D+00  0.292233D+00 -0.180310D+00  0.110323D+00  0.252871D+00
 Unable to Open any file for archive entry.
 1\1\GINC-SOL-E616\SP\RCAM-B3LYP TD-FC\6-311G(d,p)\C16H15N3\CRF524\22-J
 an-2025\0\\#p td(nstates=20, singlets) cam-b3lyp/6-311g(d,p) scrf=(sol
 vent=acetonitrile)\\h-pai-me_anti-cis_tddft\\0,1\N,0,0.087036,-2.07162
 8,-0.701556\N,0,1.334655,-2.088785,-0.715857\C,0,-0.745915,-1.009985,-
 0.352087\C,0,-0.668793,0.441161,-0.381891\C,0,-2.0514,-1.338587,0.0001
 9\C,0,-1.948921,0.893423,0.001599\C,0,0.279423,1.4003,-0.756156\C,0,-2
 .289078,2.240436,0.064256\C,0,-0.053581,2.742039,-0.703238\H,0,1.26532
 5,1.109766,-1.08692\C,0,-1.321982,3.163015,-0.288957\H,0,-3.279759,2.5
 56753,0.365064\H,0,0.68458,3.481811,-0.988877\H,0,-1.552906,4.220688,-
 0.254759\C,0,2.151752,-1.062797,-0.161946\C,0,3.253541,-0.643745,-0.90
 3945\C,0,1.987979,-0.615903,1.147525\C,0,4.150381,0.264924,-0.363716\H
 ,0,3.389693,-1.035594,-1.904739\C,0,2.905129,0.270701,1.691703\H,0,1.1
 51564,-0.968967,1.737293\C,0,3.979369,0.725104,0.936729\H,0,4.993607,0
 .603276,-0.953819\H,0,2.776986,0.612035,2.711971\H,0,4.687873,1.423713
 ,1.364482\N,0,-2.754599,-0.204707,0.2515\C,0,-4.139104,-0.112843,0.675
 608\H,0,-4.217322,0.528263,1.554014\H,0,-4.761291,0.297505,-0.12188\H,
 0,-4.507419,-1.100647,0.936242\C,0,-2.643818,-2.695824,0.119783\H,0,-3
 .579676,-2.768974,-0.437656\H,0,-1.936776,-3.421982,-0.273622\H,0,-2.8
 54018,-2.950323,1.161844\\Version=ES64L-G16RevC.01\State=1-A\HF=-782.7
 049402\RMSD=9.856e-09\PG=C01 [X(C16H15N3)]\\@
 The archive entry for this job was punched.


 MICHAEL FARADAY, ASKED BY A POLITICIAN WHAT GOOD
 HIS ELECTRICAL DISCOVERIES WERE, REPLIED 
 "AT PRESENT I DO NOT KNOW, BUT ONE DAY YOU WILL BE
 ABLE TO TAX THEM."
 Job cpu time:       0 days  2 hours 13 minutes 57.2 seconds.
 Elapsed time:       0 days  0 hours  3 minutes 47.1 seconds.
 File lengths (MBytes):  RWF=   2108 Int=      0 D2E=      0 Chk=    140 Scr=      8
 Normal termination of Gaussian 16 at Wed Jan 22 11:28:02 2025.
