 Entering Gaussian System, Link 0=g16
 Initial command:
 /share/Apps/gaussian/g16/l1.exe "/share/ceph/scratch/crf524/12192577/Gau-377943.inp" -scrdir="/share/ceph/scratch/crf524/12192577/"
 Entering Link 1 = /share/Apps/gaussian/g16/l1.exe PID=    377944.
  
 Copyright (c) 1988-2019, Gaussian, Inc.  All Rights Reserved.
  
 This is part of the Gaussian(R) 16 program.  It is based on
 the Gaussian(R) 09 system (copyright 2009, Gaussian, Inc.),
 the Gaussian(R) 03 system (copyright 2003, Gaussian, Inc.),
 the Gaussian(R) 98 system (copyright 1998, Gaussian, Inc.),
 the Gaussian(R) 94 system (copyright 1995, Gaussian, Inc.),
 the Gaussian 92(TM) system (copyright 1992, Gaussian, Inc.),
 the Gaussian 90(TM) system (copyright 1990, Gaussian, Inc.),
 the Gaussian 88(TM) system (copyright 1988, Gaussian, Inc.),
 the Gaussian 86(TM) system (copyright 1986, Carnegie Mellon
 University), and the Gaussian 82(TM) system (copyright 1983,
 Carnegie Mellon University). Gaussian is a federally registered
 trademark of Gaussian, Inc.
  
 This software contains proprietary and confidential information,
 including trade secrets, belonging to Gaussian, Inc.
  
 This software is provided under written license and may be
 used, copied, transmitted, or stored only in accord with that
 written license.
  
 The following legend is applicable only to US Government
 contracts under FAR:
  
                    RESTRICTED RIGHTS LEGEND
  
 Use, reproduction and disclosure by the US Government is
 subject to restrictions as set forth in subparagraphs (a)
 and (c) of the Commercial Computer Software - Restricted
 Rights clause in FAR 52.227-19.
  
 Gaussian, Inc.
 340 Quinnipiac St., Bldg. 40, Wallingford CT 06492
  
  
 ---------------------------------------------------------------
 Warning -- This program may not be used in any manner that
 competes with the business of Gaussian, Inc. or will provide
 assistance to any competitor of Gaussian, Inc.  The licensee
 of this program is prohibited from giving any competitor of
 Gaussian, Inc. access to this program.  By using this program,
 the user acknowledges that Gaussian, Inc. is engaged in the
 business of creating and licensing software in the field of
 computational chemistry and represents and warrants to the
 licensee that it is not a competitor of Gaussian, Inc. and that
 it will not use this program in any manner prohibited above.
 ---------------------------------------------------------------
  

 Cite this work as:
 Gaussian 16, Revision C.01,
 M. J. Frisch, G. W. Trucks, H. B. Schlegel, G. E. Scuseria, 
 M. A. Robb, J. R. Cheeseman, G. Scalmani, V. Barone, 
 G. A. Petersson, H. Nakatsuji, X. Li, M. Caricato, A. V. Marenich, 
 J. Bloino, B. G. Janesko, R. Gomperts, B. Mennucci, H. P. Hratchian, 
 J. V. Ortiz, A. F. Izmaylov, J. L. Sonnenberg, D. Williams-Young, 
 F. Ding, F. Lipparini, F. Egidi, J. Goings, B. Peng, A. Petrone, 
 T. Henderson, D. Ranasinghe, V. G. Zakrzewski, J. Gao, N. Rega, 
 G. Zheng, W. Liang, M. Hada, M. Ehara, K. Toyota, R. Fukuda, 
 J. Hasegawa, M. Ishida, T. Nakajima, Y. Honda, O. Kitao, H. Nakai, 
 T. Vreven, K. Throssell, J. A. Montgomery, Jr., J. E. Peralta, 
 F. Ogliaro, M. J. Bearpark, J. J. Heyd, E. N. Brothers, K. N. Kudin, 
 V. N. Staroverov, T. A. Keith, R. Kobayashi, J. Normand, 
 K. Raghavachari, A. P. Rendell, J. C. Burant, S. S. Iyengar, 
 J. Tomasi, M. Cossi, J. M. Millam, M. Klene, C. Adamo, R. Cammi, 
 J. W. Ochterski, R. L. Martin, K. Morokuma, O. Farkas, 
 J. B. Foresman, and D. J. Fox, Gaussian, Inc., Wallingford CT, 2019.
 
 ******************************************
 Gaussian 16:  ES64L-G16RevC.01  3-Jul-2019
                22-Jan-2025 
 ******************************************
 %nprocshared=36
 Will use up to   36 processors via shared memory.
 %mem=190GB
 %chk=anti-trans.chk
 ----------------------------------------------------------------------
 #p td(nstates=20, singlets) cam-b3lyp/6-311g(d,p) scrf=(solvent=aceton
 itrile)
 ----------------------------------------------------------------------
 1/38=1,172=1/1;
 2/12=2,17=6,18=5,40=1/2;
 3/5=4,6=6,7=101,11=9,25=1,30=1,70=2201,72=2,74=-40/1,2,3,8;
 4//1;
 5/5=2,38=5,53=2/2;
 8/6=1,10=2,108=20/1;
 9/41=20,42=1,48=1,70=2/14;
 6/7=2,8=2,9=2,10=2/1;
 99/5=1,9=1/99;
 Leave Link    1 at Wed Jan 22 11:28:05 2025, MaxMem= 25501368320 cpu:               4.7 elap:               0.1
 (Enter /share/Apps/gaussian/g16/l101.exe)
 -------------------------
 h-pai-me_anti-trans_tddft
 -------------------------
 Symbolic Z-matrix:
 Charge =  0 Multiplicity = 1
 N                     0.67429  -0.65711   0.01074 
 N                     1.34756   0.40125   0.00644 
 C                    -0.69019  -0.50804   0.0087 
 C                    -1.53065   0.66726  -0.00807 
 C                    -1.5253   -1.61825   0.02347 
 C                    -2.85406   0.18679  -0.00276 
 C                    -1.31142   2.04673  -0.02783 
 C                    -3.9563    1.03318  -0.01598 
 C                    -2.40523   2.89589  -0.04123 
 H                    -0.3024    2.43142  -0.03228 
 C                    -3.71292   2.39636  -0.03522 
 H                    -4.96754   0.64638  -0.01155 
 H                    -2.24806   3.96779  -0.05656 
 H                    -4.54852   3.08562  -0.04588 
 C                     2.75414   0.20745  -0.00039 
 C                     3.52712   1.36181   0.09626 
 C                     3.3842   -1.03442  -0.10534 
 C                     4.91226   1.28241   0.09693 
 H                     3.02226   2.31715   0.17276 
 C                     4.7666   -1.1087   -0.10653 
 H                     2.77881  -1.9264   -0.18684 
 C                     5.5365    0.04662  -0.00427 
 H                     5.50408   2.18643   0.1752 
 H                     5.25113  -2.07446  -0.18971 
 H                     6.61777  -0.01908  -0.00632 
 N                    -2.81953  -1.20087   0.01654 
 C                    -4.00587  -2.0355    0.02787 
 H                    -4.60718  -1.82775   0.91426 
 H                    -4.60839  -1.84979  -0.86254 
 H                    -3.71665  -3.08209   0.04056 
 C                    -1.13761  -3.05216   0.04469 
 H                    -1.52217  -3.58073  -0.83069 
 H                    -0.05312  -3.1274    0.04722 
 H                    -1.52395  -3.55465   0.93453 
 
 ITRead=  0  0  0  0  0  0  0  0  0  0  0  0  0  0  0  0  0  0  0  0
 ITRead=  0  0  0  0  0  0  0  0  0  0  0  0  0  0
 MicOpt= -1 -1 -1 -1 -1 -1 -1 -1 -1 -1 -1 -1 -1 -1 -1 -1 -1 -1 -1 -1
 MicOpt= -1 -1 -1 -1 -1 -1 -1 -1 -1 -1 -1 -1 -1 -1
 NAtoms=     34 NQM=       34 NQMF=       0 NMMI=      0 NMMIF=      0
                NMic=       0 NMicF=      0.
                    Isotopes and Nuclear Properties:
 (Nuclear quadrupole moments (NQMom) in fm**2, nuclear magnetic moments (NMagM)
  in nuclear magnetons)

  Atom         1           2           3           4           5           6           7           8           9          10
 IAtWgt=          14          14          12          12          12          12          12          12          12           1
 AtmWgt=  14.0030740  14.0030740  12.0000000  12.0000000  12.0000000  12.0000000  12.0000000  12.0000000  12.0000000   1.0078250
 NucSpn=           2           2           0           0           0           0           0           0           0           1
 AtZEff=  -0.0000000  -0.0000000  -0.0000000  -0.0000000  -0.0000000  -0.0000000  -0.0000000  -0.0000000  -0.0000000  -0.0000000
 NQMom=    2.0440000   2.0440000   0.0000000   0.0000000   0.0000000   0.0000000   0.0000000   0.0000000   0.0000000   0.0000000
 NMagM=    0.4037610   0.4037610   0.0000000   0.0000000   0.0000000   0.0000000   0.0000000   0.0000000   0.0000000   2.7928460
 AtZNuc=   7.0000000   7.0000000   6.0000000   6.0000000   6.0000000   6.0000000   6.0000000   6.0000000   6.0000000   1.0000000

  Atom        11          12          13          14          15          16          17          18          19          20
 IAtWgt=          12           1           1           1          12          12          12          12           1          12
 AtmWgt=  12.0000000   1.0078250   1.0078250   1.0078250  12.0000000  12.0000000  12.0000000  12.0000000   1.0078250  12.0000000
 NucSpn=           0           1           1           1           0           0           0           0           1           0
 AtZEff=  -0.0000000  -0.0000000  -0.0000000  -0.0000000  -0.0000000  -0.0000000  -0.0000000  -0.0000000  -0.0000000  -0.0000000
 NQMom=    0.0000000   0.0000000   0.0000000   0.0000000   0.0000000   0.0000000   0.0000000   0.0000000   0.0000000   0.0000000
 NMagM=    0.0000000   2.7928460   2.7928460   2.7928460   0.0000000   0.0000000   0.0000000   0.0000000   2.7928460   0.0000000
 AtZNuc=   6.0000000   1.0000000   1.0000000   1.0000000   6.0000000   6.0000000   6.0000000   6.0000000   1.0000000   6.0000000

  Atom        21          22          23          24          25          26          27          28          29          30
 IAtWgt=           1          12           1           1           1          14          12           1           1           1
 AtmWgt=   1.0078250  12.0000000   1.0078250   1.0078250   1.0078250  14.0030740  12.0000000   1.0078250   1.0078250   1.0078250
 NucSpn=           1           0           1           1           1           2           0           1           1           1
 AtZEff=  -0.0000000  -0.0000000  -0.0000000  -0.0000000  -0.0000000  -0.0000000  -0.0000000  -0.0000000  -0.0000000  -0.0000000
 NQMom=    0.0000000   0.0000000   0.0000000   0.0000000   0.0000000   2.0440000   0.0000000   0.0000000   0.0000000   0.0000000
 NMagM=    2.7928460   0.0000000   2.7928460   2.7928460   2.7928460   0.4037610   0.0000000   2.7928460   2.7928460   2.7928460
 AtZNuc=   1.0000000   6.0000000   1.0000000   1.0000000   1.0000000   7.0000000   6.0000000   1.0000000   1.0000000   1.0000000

  Atom        31          32          33          34
 IAtWgt=          12           1           1           1
 AtmWgt=  12.0000000   1.0078250   1.0078250   1.0078250
 NucSpn=           0           1           1           1
 AtZEff=  -0.0000000  -0.0000000  -0.0000000  -0.0000000
 NQMom=    0.0000000   0.0000000   0.0000000   0.0000000
 NMagM=    0.0000000   2.7928460   2.7928460   2.7928460
 AtZNuc=   6.0000000   1.0000000   1.0000000   1.0000000
 Leave Link  101 at Wed Jan 22 11:28:05 2025, MaxMem= 25501368320 cpu:               3.4 elap:               0.1
 (Enter /share/Apps/gaussian/g16/l202.exe)
                          Input orientation:                          
 ---------------------------------------------------------------------
 Center     Atomic      Atomic             Coordinates (Angstroms)
 Number     Number       Type             X           Y           Z
 ---------------------------------------------------------------------
      1          7           0        0.674285   -0.657106    0.010741
      2          7           0        1.347561    0.401252    0.006435
      3          6           0       -0.690188   -0.508039    0.008702
      4          6           0       -1.530646    0.667255   -0.008067
      5          6           0       -1.525304   -1.618245    0.023474
      6          6           0       -2.854059    0.186787   -0.002757
      7          6           0       -1.311415    2.046734   -0.027827
      8          6           0       -3.956303    1.033183   -0.015983
      9          6           0       -2.405227    2.895890   -0.041225
     10          1           0       -0.302403    2.431420   -0.032282
     11          6           0       -3.712921    2.396359   -0.035218
     12          1           0       -4.967542    0.646381   -0.011549
     13          1           0       -2.248062    3.967794   -0.056564
     14          1           0       -4.548517    3.085621   -0.045879
     15          6           0        2.754144    0.207445   -0.000391
     16          6           0        3.527118    1.361811    0.096259
     17          6           0        3.384202   -1.034420   -0.105343
     18          6           0        4.912258    1.282412    0.096925
     19          1           0        3.022262    2.317145    0.172762
     20          6           0        4.766602   -1.108703   -0.106532
     21          1           0        2.778813   -1.926403   -0.186839
     22          6           0        5.536497    0.046620   -0.004274
     23          1           0        5.504075    2.186432    0.175202
     24          1           0        5.251129   -2.074464   -0.189705
     25          1           0        6.617769   -0.019083   -0.006321
     26          7           0       -2.819527   -1.200868    0.016541
     27          6           0       -4.005865   -2.035495    0.027869
     28          1           0       -4.607179   -1.827746    0.914255
     29          1           0       -4.608393   -1.849790   -0.862544
     30          1           0       -3.716649   -3.082089    0.040555
     31          6           0       -1.137609   -3.052156    0.044694
     32          1           0       -1.522169   -3.580728   -0.830689
     33          1           0       -0.053120   -3.127403    0.047216
     34          1           0       -1.523952   -3.554650    0.934527
 ---------------------------------------------------------------------
                    Distance matrix (angstroms):
                    1          2          3          4          5
     1  N    0.000000
     2  N    1.254369   0.000000
     3  C    1.372593   2.231420   0.000000
     4  C    2.572160   2.890509   1.444980   0.000000
     5  C    2.400446   3.511696   1.389314   2.285724   0.000000
     6  C    3.627885   4.207100   2.272719   1.407942   2.241521
     7  C    3.354883   3.127129   2.629472   1.396931   3.671573
     8  C    4.929517   5.341424   3.611576   2.453116   3.597413
     9  C    4.702114   4.506541   3.811900   2.394328   4.599551
    10  H    3.239562   2.616383   2.965211   2.149755   4.230648
    11  C    5.345403   5.439730   4.192180   2.784396   4.572325
    12  H    5.790491   6.319884   4.430446   3.436961   4.120529
    13  H    5.471229   5.064849   4.739653   3.377957   5.633171
    14  H    6.425642   6.478604   5.272957   3.867489   5.592046
    15  C    2.252418   1.419889   3.517872   4.309398   4.652675
    16  C    3.495997   2.383529   4.614074   5.106297   5.866259
    17  C    2.738520   2.494305   4.109834   5.202008   4.945775
    18  C    4.661499   3.673104   5.882253   6.473056   7.061261
    19  H    3.792811   2.550085   4.668069   4.846009   6.015807
    20  C    4.118829   3.739327   5.490959   6.543627   6.313843
    21  H    2.465602   2.739309   3.752860   5.032937   4.320256
    22  C    4.912897   4.203934   6.251354   7.094344   7.255452
    23  H    5.607105   4.526804   6.756981   7.199221   7.994420
    24  H    4.795475   4.626606   6.147544   7.317273   6.795118
    25  H    5.977656   5.286959   7.324312   8.177269   8.298665
    26  N    3.535878   4.464472   2.239232   2.269736   1.359877
    27  C    4.878940   5.881953   3.650644   3.665086   2.515412
    28  H    5.484578   6.422733   4.231368   4.067034   3.214862
    29  H    5.485600   6.426173   4.232221   4.066715   3.216221
    30  H    5.016147   6.146629   3.973187   4.340340   2.635360
    31  C    3.003394   4.254828   2.583411   3.740492   1.485550
    32  H    3.752330   4.979186   3.292140   4.326909   2.140314
    33  H    2.575425   3.796706   2.695998   4.072538   2.108423
    34  H    3.752518   4.975550   3.291527   4.325854   2.140020
                    6          7          8          9         10
     6  C    0.000000
     7  C    2.416564   0.000000
     8  C    1.389785   2.832465   0.000000
     9  C    2.746301   1.384800   2.424077   0.000000
    10  H    3.398558   1.079865   3.912329   2.153528   0.000000
    11  C    2.370845   2.426834   1.384866   1.399868   3.410699
    12  H    2.162895   3.915165   1.082700   3.409784   4.995029
    13  H    3.829640   2.137430   3.395832   1.083473   2.479239
    14  H    3.358018   3.399771   2.136378   2.151676   4.296236
    15  C    5.608242   4.462343   6.761079   5.817947   3.780154
    16  C    6.489215   4.888345   7.491474   6.129031   3.978168
    17  C    6.357497   5.616791   7.626663   6.997781   5.060478
    18  C    7.843852   6.271671   8.872781   7.494530   5.341311
    19  H    6.253030   4.346736   7.098208   5.462451   3.332942
    20  C    7.730688   6.848742   8.982480   8.214387   6.183267
    21  H    6.019029   5.704478   7.358677   7.081665   5.339326
    22  C    8.391727   7.134067   9.543935   8.437457   6.307203
    23  H    8.595851   6.819944   9.532329   7.944006   5.815347
    24  H    8.416786   7.750965   9.719283   9.129417   7.153285
    25  H    9.474066   8.193901  10.626305   9.482233   7.341282
    26  N    1.388219   3.580962   2.506851   4.118059   4.419481
    27  C    2.503224   4.891601   3.069391   5.185111   5.802808
    28  H    2.823594   5.173120   3.077970   5.298516   6.129235
    29  H    2.822157   5.172013   3.074641   5.296224   6.128592
    30  H    3.381048   5.665214   4.122632   6.120682   6.485458
    31  C    3.665952   5.102367   4.963740   6.082227   5.547351
    32  H    4.080879   5.688351   5.279861   6.584043   6.186373
    33  H    4.339541   5.325470   5.705200   6.466861   5.564978
    34  H    4.079955   5.687425   5.279016   6.583176   6.185462
                   11         12         13         14         15
    11  C    0.000000
    12  H    2.153383   0.000000
    13  H    2.148412   4.292946   0.000000
    14  H    1.083243   2.475208   2.463826   0.000000
    15  C    6.827554   7.734160   6.258230   7.849511   0.000000
    16  C    7.314762   8.525416   6.337760   8.258790   1.392620
    17  C    7.883167   8.519713   7.533055   8.939033   1.396502
    18  C    8.697819   9.900846   7.648857   9.632145   2.412982
    19  H    6.738859   8.164704   5.527526   7.612822   2.133706
    20  C    9.175666   9.891557   8.659032  10.216040   2.406969
    21  H    7.800761   8.164310   7.747774   8.878627   2.142120
    22  C    9.543268  10.521150   8.716519  10.533032   2.787000
    23  H    9.221787  10.585906   7.957550  10.095149   3.392542
    24  H   10.018299  10.576198   9.631432  11.076111   3.387902
    25  H   10.609352  11.604409   9.721146  11.589939   3.870265
    26  N    3.706868   2.833211   5.200671   4.622477   5.748864
    27  C    4.441973   2.849357   6.255916   5.150314   7.122450
    28  H    4.420889   2.666136   6.332157   5.006643   7.692051
    29  H    4.417705   2.661588   6.329696   5.002880   7.693015
    30  H    5.478973   3.933057   7.201877   6.224156   7.259055
    31  C    6.027017   5.324540   7.107957   7.022450   5.076689
    32  H    6.415430   5.514530   7.622754   7.363078   5.772911
    33  H    6.626680   6.196486   7.427675   7.669350   4.359382
    34  H    6.414554   5.513804   7.621926   7.362227   5.773174
                   16         17         18         19         20
    16  C    0.000000
    17  C    2.408940   0.000000
    18  C    1.387414   2.782729   0.000000
    19  H    1.083234   3.382504   2.156040   0.000000
    20  C    2.771441   1.384395   2.404172   3.854499   0.000000
    21  H    3.384148   1.081097   3.863755   4.265710   2.150904
    22  C    2.403630   2.410651   1.388199   3.392345   1.392109
    23  H    2.143500   3.866064   1.083341   2.485254   3.388385
    24  H    3.855123   2.138744   3.386090   4.938164   1.083687
    25  H    3.386667   3.390674   2.147863   4.291585   2.150380
    26  N    6.844968   6.207158   8.121185   6.821094   7.587687
    27  C    8.263909   7.458752   9.515576   8.268073   8.822312
    28  H    8.775487   8.095129  10.047925   8.714259   9.456574
    29  H    8.798876   8.069681  10.068469   8.755690   9.434580
    30  H    8.498442   7.391638   9.670061   8.636094   8.710995
    31  C    6.422261   4.953841   7.442587   6.793403   6.217683
    32  H    7.126235   5.575149   8.118648   7.512900   6.795878
    33  H    5.742260   4.027286   6.641078   6.254346   5.227668
    34  H    7.098422   5.614523   8.094662   7.465007   6.829168
                   21         22         23         24         25
    21  H    0.000000
    22  C    3.395728   0.000000
    23  H    4.947074   2.147570   0.000000
    24  H    2.476747   2.148212   4.283967   0.000000
    25  H    4.290459   1.083268   2.477410   2.475061   0.000000
    26  N    5.648821   8.448657   8.987843   8.120418   9.511030
    27  C    6.788951   9.766929  10.406024   9.259633  10.813357
    28  H    7.468267  10.356211  10.904003   9.922995  11.406936
    29  H    7.418440  10.356244  10.937551   9.885007  11.406635
    30  H    6.601390   9.767883  10.620602   9.027146  10.778887
    31  C    4.081579   7.358567   8.460012   6.467364   8.327546
    32  H    4.652932   7.979059   9.145494   6.968304   8.923199
    33  H    3.084968   6.428133   7.689970   5.412935   7.359706
    34  H    4.735234   7.981255   9.106578   7.025423   8.925976
                   26         27         28         29         30
    26  N    0.000000
    27  C    1.450561   0.000000
    28  H    2.096322   1.091063   0.000000
    29  H    2.096171   1.091037   1.776936   0.000000
    30  H    2.084322   1.085894   1.769116   1.768999   0.000000
    31  C    2.501381   3.043152   3.780639   3.783531   2.579217
    32  H    2.839836   3.048543   3.954120   3.538635   2.413182
    33  H    3.371274   4.100833   4.814594   4.817725   3.663815
    34  H    2.839279   3.047910   3.533963   3.955981   2.414626
                   31         32         33         34
    31  C    0.000000
    32  H    1.092506   0.000000
    33  H    1.087099   1.770403   0.000000
    34  H    1.092504   1.765410   1.770087   0.000000
 Stoichiometry    C16H15N3
 Framework group  C1[X(C16H15N3)]
 Deg. of freedom    96
 Full point group                 C1      NOp   1
 Largest Abelian subgroup         C1      NOp   1
 Largest concise Abelian subgroup C1      NOp   1
                         Standard orientation:                         
 ---------------------------------------------------------------------
 Center     Atomic      Atomic             Coordinates (Angstroms)
 Number     Number       Type             X           Y           Z
 ---------------------------------------------------------------------
      1          7           0       -0.674285    0.657106    0.010741
      2          7           0       -1.347561   -0.401252    0.006435
      3          6           0        0.690188    0.508039    0.008702
      4          6           0        1.530646   -0.667255   -0.008067
      5          6           0        1.525304    1.618245    0.023474
      6          6           0        2.854059   -0.186787   -0.002757
      7          6           0        1.311415   -2.046734   -0.027827
      8          6           0        3.956303   -1.033183   -0.015983
      9          6           0        2.405227   -2.895890   -0.041225
     10          1           0        0.302403   -2.431420   -0.032282
     11          6           0        3.712921   -2.396359   -0.035218
     12          1           0        4.967542   -0.646381   -0.011549
     13          1           0        2.248062   -3.967794   -0.056564
     14          1           0        4.548517   -3.085621   -0.045879
     15          6           0       -2.754144   -0.207445   -0.000391
     16          6           0       -3.527118   -1.361811    0.096259
     17          6           0       -3.384202    1.034420   -0.105343
     18          6           0       -4.912258   -1.282412    0.096925
     19          1           0       -3.022262   -2.317145    0.172762
     20          6           0       -4.766602    1.108703   -0.106532
     21          1           0       -2.778813    1.926403   -0.186839
     22          6           0       -5.536497   -0.046620   -0.004274
     23          1           0       -5.504075   -2.186432    0.175202
     24          1           0       -5.251129    2.074464   -0.189705
     25          1           0       -6.617769    0.019083   -0.006321
     26          7           0        2.819527    1.200868    0.016541
     27          6           0        4.005865    2.035495    0.027869
     28          1           0        4.607179    1.827746    0.914255
     29          1           0        4.608393    1.849790   -0.862544
     30          1           0        3.716649    3.082089    0.040555
     31          6           0        1.137609    3.052156    0.044694
     32          1           0        1.522169    3.580728   -0.830689
     33          1           0        0.053120    3.127403    0.047216
     34          1           0        1.523952    3.554650    0.934527
 ---------------------------------------------------------------------
 Rotational constants (GHZ):           0.7912686           0.2023550           0.1615464
 Leave Link  202 at Wed Jan 22 11:28:05 2025, MaxMem= 25501368320 cpu:               1.1 elap:               0.1
 (Enter /share/Apps/gaussian/g16/l301.exe)
 Standard basis: 6-311G(d,p) (5D, 7F)
 Ernie: Thresh=  0.10000D-02 Tol=  0.10000D-05 Strict=F.
 There are   451 symmetry adapted cartesian basis functions of A   symmetry.
 There are   432 symmetry adapted basis functions of A   symmetry.
   432 basis functions,   728 primitive gaussians,   451 cartesian basis functions
    66 alpha electrons       66 beta electrons
       nuclear repulsion energy      1291.4385300650 Hartrees.
 IExCor=20419 DFT=T Ex+Corr=CAM-B3LYP ExCW=0 ScaHFX=  1.000000
 ScaDFX=  1.000000  1.000000  1.000000  0.810000 ScalE2=  1.000000  1.000000
 IRadAn=      5 IRanWt=     -1 IRanGd=            0 ICorTp=0 IEmpDi=  4
 HFx  wShort=  0.000000 wLong=  0.330000 cFull=  0.190000 cShort=  0.000000 cLong=  0.460000
 DFx  wShort=  0.000000 wLong=  0.330000 cFull=  0.190000 cShort=  0.000000 cLong=  0.460000
 NAtoms=   34 NActive=   34 NUniq=   34 SFac= 1.00D+00 NAtFMM=   60 NAOKFM=F Big=F
 Integral buffers will be    131072 words long.
 Raffenetti 1 integral format.
 Two-electron integral symmetry is turned on.
 ------------------------------------------------------------------------------
 Polarizable Continuum Model (PCM)
 =================================
 Model                : PCM.
 Atomic radii         : UFF (Universal Force Field).
 Polarization charges : Total charges.
 Charge compensation  : None.
 Solution method      : On-the-fly selection.
 Cavity type          : Scaled VdW (van der Waals Surface) (Alpha=1.100).
 Cavity algorithm     : GePol (No added spheres)
                        Default sphere list used, NSphG=   34.
                        Lebedev-Laikov grids with approx.  5.0 points / Ang**2.
                        Smoothing algorithm: York/Karplus (Gamma=1.0000).
                        Polarization charges: spherical gaussians, with
                                              point-specific exponents (IZeta= 3).
                        Self-potential: point-specific (ISelfS= 7).
                        Self-field    : sphere-specific E.n sum rule (ISelfD= 2).
 Solvent              : Acetonitrile, Eps=  35.688000 Eps(inf)=   1.806874
 ------------------------------------------------------------------------------
 GePol: Number of generator spheres                  =      34
 GePol: Total number of spheres                      =      34
 GePol: Number of exposed spheres                    =      34 (100.00%)
 GePol: Number of points                             =    2634
 GePol: Average weight of points                     =       0.13
 GePol: Minimum weight of points                     =   0.46D-10
 GePol: Maximum weight of points                     =    0.20577
 GePol: Number of points with low weight             =     175
 GePol: Fraction of low-weight points (<1% of avg)   =       6.64%
 GePol: Cavity surface area                          =    335.217 Ang**2
 GePol: Cavity volume                                =    359.976 Ang**3
 Leave Link  301 at Wed Jan 22 11:28:05 2025, MaxMem= 25501368320 cpu:               2.4 elap:               0.1
 (Enter /share/Apps/gaussian/g16/l302.exe)
 NPDir=0 NMtPBC=     1 NCelOv=     1 NCel=       1 NClECP=     1 NCelD=      1
         NCelK=      1 NCelE2=     1 NClLst=     1 CellRange=     0.0.
 One-electron integrals computed using PRISM.
 One-electron integral symmetry used in STVInt
 NBasis=   432 RedAO= T EigKep=  1.26D-04  NBF=   432
 NBsUse=   432 1.00D-06 EigRej= -1.00D+00 NBFU=   432
 Precomputing XC quadrature grid using
 IXCGrd= 4 IRadAn=           5 IRanWt=          -1 IRanGd=           0 AccXCQ= 0.00D+00.
 Generated NRdTot=       0 NPtTot=           0 NUsed=           0 NTot=          32
 NSgBfM=   447   447   447   447   447 MxSgAt=    34 MxSgA2=    34.
 Leave Link  302 at Wed Jan 22 11:28:06 2025, MaxMem= 25501368320 cpu:              13.3 elap:               0.4
 (Enter /share/Apps/gaussian/g16/l303.exe)
 DipDrv:  MaxL=1.
 Leave Link  303 at Wed Jan 22 11:28:06 2025, MaxMem= 25501368320 cpu:               1.4 elap:               0.1
 (Enter /share/Apps/gaussian/g16/l308.exe)
 Leave Link  308 at Wed Jan 22 11:28:06 2025, MaxMem= 25501368320 cpu:               3.3 elap:               0.1
 (Enter /share/Apps/gaussian/g16/l401.exe)
 ExpMin= 1.03D-01 ExpMax= 6.29D+03 ExpMxC= 9.49D+02 IAcc=3 IRadAn=         5 AccDes= 0.00D+00
 Harris functional with IExCor=20419 and IRadAn=       5 diagonalized for initial guess.
 HarFok:  IExCor=20419 AccDes= 0.00D+00 IRadAn=         5 IDoV= 1 UseB2=F ITyADJ=14
 ICtDFT=  3500011 ScaDFX=  1.000000  1.000000  1.000000  1.000000
 FoFCou: FMM=F IPFlag=           0 FMFlag=      100000 FMFlg1=           0
         NFxFlg=           0 DoJE=T BraDBF=F KetDBF=T FulRan=T
         wScrn=  0.000000 ICntrl=       500 IOpCl=  0 I1Cent=   200000004 NGrid=           0
         NMat0=    1 NMatS0=      1 NMatT0=    0 NMatD0=    1 NMtDS0=    0 NMtDT0=    0
 Petite list used in FoFCou.
 Harris En= -751.520942764614    
 JPrj=0 DoOrth=F DoCkMO=F.
 Leave Link  401 at Wed Jan 22 11:28:07 2025, MaxMem= 25501368320 cpu:              22.8 elap:               0.7
 (Enter /share/Apps/gaussian/g16/l502.exe)
 Integral symmetry usage will be decided dynamically.
 Closed shell SCF:
 Using DIIS extrapolation, IDIIS=  1040.
 NGot= 25501368320 LenX= 25500939987 LenY= 25500736135
 Requested convergence on RMS density matrix=1.00D-08 within 128 cycles.
 Requested convergence on MAX density matrix=1.00D-06.
 Requested convergence on             energy=1.00D-06.
 No special actions if energy rises.
 Fock matrices will be formed incrementally for  20 cycles.

 Cycle   1  Pass 1  IDiag  1:
 FoFJK:  IHMeth= 1 ICntrl=       0 DoSepK=T KAlg= 0 I1Cent=           0 FoldK=F
 IRaf=         1 NMat=       1 IRICut=       1 DoRegI=T DoRafI=F ISym2E= 0 IDoP0=0 IntGTp=1.
 FoFCou: FMM=F IPFlag=           0 FMFlag=      100000 FMFlg1=           0
         NFxFlg=           0 DoJE=T BraDBF=F KetDBF=F FulRan=T
         wScrn=  0.000000 ICntrl=       500 IOpCl=  0 I1Cent=           0 NGrid=           0
         NMat0=    1 NMatS0=      1 NMatT0=    0 NMatD0=    1 NMtDS0=    0 NMtDT0=    0
 Symmetry not used in FoFCou.
 Inv3:  Mode=1 IEnd=    20813868.
 Iteration    1 A*A^-1 deviation from unit magnitude is 3.33D-15 for   2282.
 Iteration    1 A*A^-1 deviation from orthogonality  is 2.03D-15 for   1849    835.
 Iteration    1 A^-1*A deviation from unit magnitude is 3.77D-15 for    880.
 Iteration    1 A^-1*A deviation from orthogonality  is 2.32D-15 for   2399   2010.
 E= -782.469909222569    
 DIIS: error= 5.29D-02 at cycle   1 NSaved=   1.
 NSaved= 1 IEnMin= 1 EnMin= -782.469909222569     IErMin= 1 ErrMin= 5.29D-02
 ErrMax= 5.29D-02  0.00D+00 EMaxC= 1.00D-01 BMatC= 1.38D+00 BMatP= 1.38D+00
 IDIUse=3 WtCom= 4.71D-01 WtEn= 5.29D-01
 Coeff-Com:  0.100D+01
 Coeff-En:   0.100D+01
 Coeff:      0.100D+01
 Gap=     0.328 Goal=   None    Shift=    0.000
 GapD=    0.328 DampG=1.000 DampE=0.500 DampFc=0.5000 IDamp=-1.
 Damping current iteration by 5.00D-01
 RMSDP=3.49D-03 MaxDP=2.21D-01              OVMax= 1.75D-01

 Cycle   2  Pass 1  IDiag  1:
 RMSU=  1.50D-03    CP:  9.17D-01
 E= -782.588942092535     Delta-E=       -0.119032869967 Rises=F Damp=T
 DIIS: error= 2.62D-02 at cycle   2 NSaved=   2.
 NSaved= 2 IEnMin= 2 EnMin= -782.588942092535     IErMin= 2 ErrMin= 2.62D-02
 ErrMax= 2.62D-02  0.00D+00 EMaxC= 1.00D-01 BMatC= 2.82D-01 BMatP= 1.38D+00
 IDIUse=3 WtCom= 7.38D-01 WtEn= 2.62D-01
 Coeff-Com: -0.524D+00 0.152D+01
 Coeff-En:   0.000D+00 0.100D+01
 Coeff:     -0.386D+00 0.139D+01
 Gap=     0.292 Goal=   None    Shift=    0.000
 RMSDP=1.18D-03 MaxDP=7.52D-02 DE=-1.19D-01 OVMax= 1.71D-01

 Cycle   3  Pass 1  IDiag  1:
 RMSU=  9.09D-04    CP:  9.59D-01  5.98D-01
 E= -782.661819354315     Delta-E=       -0.072877261780 Rises=F Damp=F
 DIIS: error= 1.66D-02 at cycle   3 NSaved=   3.
 NSaved= 3 IEnMin= 3 EnMin= -782.661819354315     IErMin= 3 ErrMin= 1.66D-02
 ErrMax= 1.66D-02  0.00D+00 EMaxC= 1.00D-01 BMatC= 7.84D-02 BMatP= 2.82D-01
 IDIUse=3 WtCom= 8.34D-01 WtEn= 1.66D-01
 Coeff-Com: -0.333D+00 0.719D+00 0.614D+00
 Coeff-En:   0.000D+00 0.000D+00 0.100D+01
 Coeff:     -0.278D+00 0.600D+00 0.678D+00
 Gap=     0.235 Goal=   None    Shift=    0.000
 RMSDP=1.40D-03 MaxDP=1.01D-01 DE=-7.29D-02 OVMax= 6.72D-02

 Cycle   4  Pass 1  IDiag  1:
 RMSU=  2.07D-04    CP:  8.92D-01  1.34D+00  5.74D-01
 E= -782.726042424229     Delta-E=       -0.064223069913 Rises=F Damp=F
 DIIS: error= 5.68D-03 at cycle   4 NSaved=   4.
 NSaved= 4 IEnMin= 4 EnMin= -782.726042424229     IErMin= 4 ErrMin= 5.68D-03
 ErrMax= 5.68D-03  0.00D+00 EMaxC= 1.00D-01 BMatC= 5.41D-03 BMatP= 7.84D-02
 IDIUse=3 WtCom= 9.43D-01 WtEn= 5.68D-02
 Coeff-Com: -0.146D+00 0.316D+00 0.373D+00 0.458D+00
 Coeff-En:   0.000D+00 0.000D+00 0.000D+00 0.100D+01
 Coeff:     -0.137D+00 0.298D+00 0.351D+00 0.488D+00
 Gap=     0.219 Goal=   None    Shift=    0.000
 RMSDP=1.36D-04 MaxDP=1.21D-02 DE=-6.42D-02 OVMax= 1.58D-02

 Cycle   5  Pass 1  IDiag  1:
 RMSU=  8.47D-05    CP:  8.96D-01  1.29D+00  6.31D-01  9.96D-01
 E= -782.730351836626     Delta-E=       -0.004309412397 Rises=F Damp=F
 DIIS: error= 7.41D-04 at cycle   5 NSaved=   5.
 NSaved= 5 IEnMin= 5 EnMin= -782.730351836626     IErMin= 5 ErrMin= 7.41D-04
 ErrMax= 7.41D-04  0.00D+00 EMaxC= 1.00D-01 BMatC= 7.66D-05 BMatP= 5.41D-03
 IDIUse=3 WtCom= 9.93D-01 WtEn= 7.41D-03
 Coeff-Com:  0.139D-01-0.302D-01-0.542D-02 0.137D+00 0.884D+00
 Coeff-En:   0.000D+00 0.000D+00 0.000D+00 0.000D+00 0.100D+01
 Coeff:      0.138D-01-0.300D-01-0.538D-02 0.136D+00 0.885D+00
 Gap=     0.221 Goal=   None    Shift=    0.000
 RMSDP=3.66D-05 MaxDP=1.34D-03 DE=-4.31D-03 OVMax= 5.85D-03

 Cycle   6  Pass 1  IDiag  1:
 RMSU=  2.40D-05    CP:  8.95D-01  1.30D+00  6.42D-01  1.09D+00  9.29D-01
 E= -782.730471773930     Delta-E=       -0.000119937304 Rises=F Damp=F
 DIIS: error= 1.66D-04 at cycle   6 NSaved=   6.
 NSaved= 6 IEnMin= 6 EnMin= -782.730471773930     IErMin= 6 ErrMin= 1.66D-04
 ErrMax= 1.66D-04  0.00D+00 EMaxC= 1.00D-01 BMatC= 1.67D-05 BMatP= 7.66D-05
 IDIUse=3 WtCom= 9.98D-01 WtEn= 1.66D-03
 Coeff-Com:  0.200D-01-0.436D-01-0.396D-01 0.583D-02 0.407D+00 0.650D+00
 Coeff-En:   0.000D+00 0.000D+00 0.000D+00 0.000D+00 0.000D+00 0.100D+01
 Coeff:      0.200D-01-0.435D-01-0.395D-01 0.582D-02 0.406D+00 0.651D+00
 Gap=     0.221 Goal=   None    Shift=    0.000
 RMSDP=3.41D-05 MaxDP=2.66D-03 DE=-1.20D-04 OVMax= 1.89D-03

 Cycle   7  Pass 1  IDiag  1:
 RMSU=  7.79D-06    CP:  8.94D-01  1.31D+00  6.36D-01  1.14D+00  1.07D+00
                    CP:  1.01D+00
 E= -782.730492758101     Delta-E=       -0.000020984171 Rises=F Damp=F
 DIIS: error= 9.36D-05 at cycle   7 NSaved=   7.
 NSaved= 7 IEnMin= 7 EnMin= -782.730492758101     IErMin= 7 ErrMin= 9.36D-05
 ErrMax= 9.36D-05  0.00D+00 EMaxC= 1.00D-01 BMatC= 1.05D-06 BMatP= 1.67D-05
 IDIUse=1 WtCom= 1.00D+00 WtEn= 0.00D+00
 Coeff-Com:  0.251D-02-0.549D-02-0.824D-02-0.182D-01-0.550D-02 0.161D+00
 Coeff-Com:  0.874D+00
 Coeff:      0.251D-02-0.549D-02-0.824D-02-0.182D-01-0.550D-02 0.161D+00
 Coeff:      0.874D+00
 Gap=     0.221 Goal=   None    Shift=    0.000
 RMSDP=8.26D-06 MaxDP=4.45D-04 DE=-2.10D-05 OVMax= 1.34D-03

 Cycle   8  Pass 1  IDiag  1:
 RMSU=  3.29D-06    CP:  8.93D-01  1.32D+00  6.35D-01  1.16D+00  1.10D+00
                    CP:  1.17D+00  1.07D+00
 E= -782.730495546949     Delta-E=       -0.000002788848 Rises=F Damp=F
 DIIS: error= 3.14D-05 at cycle   8 NSaved=   8.
 NSaved= 8 IEnMin= 8 EnMin= -782.730495546949     IErMin= 8 ErrMin= 3.14D-05
 ErrMax= 3.14D-05  0.00D+00 EMaxC= 1.00D-01 BMatC= 3.65D-07 BMatP= 1.05D-06
 IDIUse=1 WtCom= 1.00D+00 WtEn= 0.00D+00
 Coeff-Com: -0.170D-02 0.373D-02 0.163D-02-0.101D-01-0.596D-01-0.431D-01
 Coeff-Com:  0.398D+00 0.711D+00
 Coeff:     -0.170D-02 0.373D-02 0.163D-02-0.101D-01-0.596D-01-0.431D-01
 Coeff:      0.398D+00 0.711D+00
 Gap=     0.221 Goal=   None    Shift=    0.000
 RMSDP=3.67D-06 MaxDP=2.50D-04 DE=-2.79D-06 OVMax= 5.26D-04

 Cycle   9  Pass 1  IDiag  1:
 RMSU=  1.35D-06    CP:  8.93D-01  1.32D+00  6.34D-01  1.16D+00  1.11D+00
                    CP:  1.20D+00  1.23D+00  9.56D-01
 E= -782.730496156201     Delta-E=       -0.000000609251 Rises=F Damp=F
 DIIS: error= 1.11D-05 at cycle   9 NSaved=   9.
 NSaved= 9 IEnMin= 9 EnMin= -782.730496156201     IErMin= 9 ErrMin= 1.11D-05
 ErrMax= 1.11D-05  0.00D+00 EMaxC= 1.00D-01 BMatC= 3.87D-08 BMatP= 3.65D-07
 IDIUse=1 WtCom= 1.00D+00 WtEn= 0.00D+00
 Coeff-Com: -0.953D-03 0.208D-02 0.150D-02-0.202D-02-0.203D-01-0.437D-01
 Coeff-Com:  0.423D-01 0.252D+00 0.769D+00
 Coeff:     -0.953D-03 0.208D-02 0.150D-02-0.202D-02-0.203D-01-0.437D-01
 Coeff:      0.423D-01 0.252D+00 0.769D+00
 Gap=     0.221 Goal=   None    Shift=    0.000
 RMSDP=1.51D-06 MaxDP=8.43D-05 DE=-6.09D-07 OVMax= 2.15D-04

 Cycle  10  Pass 1  IDiag  1:
 RMSU=  6.30D-07    CP:  8.93D-01  1.32D+00  6.34D-01  1.16D+00  1.11D+00
                    CP:  1.22D+00  1.27D+00  1.14D+00  1.07D+00
 E= -782.730496234826     Delta-E=       -0.000000078625 Rises=F Damp=F
 DIIS: error= 7.85D-06 at cycle  10 NSaved=  10.
 NSaved=10 IEnMin=10 EnMin= -782.730496234826     IErMin=10 ErrMin= 7.85D-06
 ErrMax= 7.85D-06  0.00D+00 EMaxC= 1.00D-01 BMatC= 6.06D-09 BMatP= 3.87D-08
 IDIUse=1 WtCom= 1.00D+00 WtEn= 0.00D+00
 Coeff-Com: -0.129D-03 0.273D-03 0.346D-03 0.671D-03 0.182D-02-0.117D-01
 Coeff-Com: -0.384D-01-0.118D-01 0.287D+00 0.772D+00
 Coeff:     -0.129D-03 0.273D-03 0.346D-03 0.671D-03 0.182D-02-0.117D-01
 Coeff:     -0.384D-01-0.118D-01 0.287D+00 0.772D+00
 Gap=     0.221 Goal=   None    Shift=    0.000
 RMSDP=4.74D-07 MaxDP=2.45D-05 DE=-7.86D-08 OVMax= 1.39D-04

 Cycle  11  Pass 1  IDiag  1:
 RMSU=  2.25D-07    CP:  8.93D-01  1.32D+00  6.34D-01  1.16D+00  1.11D+00
                    CP:  1.22D+00  1.28D+00  1.19D+00  1.26D+00  9.45D-01
 E= -782.730496250483     Delta-E=       -0.000000015657 Rises=F Damp=F
 DIIS: error= 3.21D-06 at cycle  11 NSaved=  11.
 NSaved=11 IEnMin=11 EnMin= -782.730496250483     IErMin=11 ErrMin= 3.21D-06
 ErrMax= 3.21D-06  0.00D+00 EMaxC= 1.00D-01 BMatC= 3.14D-09 BMatP= 6.06D-09
 IDIUse=1 WtCom= 1.00D+00 WtEn= 0.00D+00
 Coeff-Com:  0.146D-03-0.322D-03-0.149D-03 0.815D-03 0.528D-02 0.290D-02
 Coeff-Com: -0.303D-01-0.616D-01-0.517D-01 0.446D+00 0.689D+00
 Coeff:      0.146D-03-0.322D-03-0.149D-03 0.815D-03 0.528D-02 0.290D-02
 Coeff:     -0.303D-01-0.616D-01-0.517D-01 0.446D+00 0.689D+00
 Gap=     0.221 Goal=   None    Shift=    0.000
 RMSDP=3.16D-07 MaxDP=1.51D-05 DE=-1.57D-08 OVMax= 5.13D-05

 Cycle  12  Pass 1  IDiag  1:
 RMSU=  1.00D-07    CP:  8.93D-01  1.32D+00  6.34D-01  1.16D+00  1.11D+00
                    CP:  1.22D+00  1.29D+00  1.23D+00  1.32D+00  1.24D+00
                    CP:  1.00D+00
 E= -782.730496255420     Delta-E=       -0.000000004937 Rises=F Damp=F
 DIIS: error= 1.26D-06 at cycle  12 NSaved=  12.
 NSaved=12 IEnMin=12 EnMin= -782.730496255420     IErMin=12 ErrMin= 1.26D-06
 ErrMax= 1.26D-06  0.00D+00 EMaxC= 1.00D-01 BMatC= 1.78D-10 BMatP= 3.14D-09
 IDIUse=1 WtCom= 1.00D+00 WtEn= 0.00D+00
 Coeff-Com:  0.816D-04-0.176D-03-0.121D-03 0.178D-03 0.144D-02 0.347D-02
 Coeff-Com: -0.204D-02-0.157D-01-0.776D-01 0.427D-01 0.181D+00 0.867D+00
 Coeff:      0.816D-04-0.176D-03-0.121D-03 0.178D-03 0.144D-02 0.347D-02
 Coeff:     -0.204D-02-0.157D-01-0.776D-01 0.427D-01 0.181D+00 0.867D+00
 Gap=     0.221 Goal=   None    Shift=    0.000
 RMSDP=9.58D-08 MaxDP=3.42D-06 DE=-4.94D-09 OVMax= 2.31D-05

 Cycle  13  Pass 1  IDiag  1:
 RMSU=  3.34D-08    CP:  8.93D-01  1.32D+00  6.34D-01  1.16D+00  1.11D+00
                    CP:  1.22D+00  1.29D+00  1.24D+00  1.34D+00  1.32D+00
                    CP:  1.17D+00  1.17D+00
 E= -782.730496255950     Delta-E=       -0.000000000530 Rises=F Damp=F
 DIIS: error= 3.44D-07 at cycle  13 NSaved=  13.
 NSaved=13 IEnMin=13 EnMin= -782.730496255950     IErMin=13 ErrMin= 3.44D-07
 ErrMax= 3.44D-07  0.00D+00 EMaxC= 1.00D-01 BMatC= 4.09D-11 BMatP= 1.78D-10
 IDIUse=1 WtCom= 1.00D+00 WtEn= 0.00D+00
 Coeff-Com:  0.908D-05-0.184D-04-0.170D-04-0.359D-04-0.292D-03 0.912D-03
 Coeff-Com:  0.350D-02 0.389D-02-0.241D-01-0.458D-01-0.581D-01 0.329D+00
 Coeff-Com:  0.792D+00
 Coeff:      0.908D-05-0.184D-04-0.170D-04-0.359D-04-0.292D-03 0.912D-03
 Coeff:      0.350D-02 0.389D-02-0.241D-01-0.458D-01-0.581D-01 0.329D+00
 Coeff:      0.792D+00
 Gap=     0.221 Goal=   None    Shift=    0.000
 RMSDP=3.77D-08 MaxDP=1.21D-06 DE=-5.30D-10 OVMax= 7.68D-06

 Cycle  14  Pass 1  IDiag  1:
 RMSU=  1.32D-08    CP:  8.93D-01  1.32D+00  6.34D-01  1.16D+00  1.11D+00
                    CP:  1.22D+00  1.29D+00  1.24D+00  1.34D+00  1.35D+00
                    CP:  1.22D+00  1.34D+00  1.07D+00
 E= -782.730496256041     Delta-E=       -0.000000000092 Rises=F Damp=F
 DIIS: error= 1.12D-07 at cycle  14 NSaved=  14.
 NSaved=14 IEnMin=14 EnMin= -782.730496256041     IErMin=14 ErrMin= 1.12D-07
 ErrMax= 1.12D-07  0.00D+00 EMaxC= 1.00D-01 BMatC= 4.42D-12 BMatP= 4.09D-11
 IDIUse=1 WtCom= 1.00D+00 WtEn= 0.00D+00
 Coeff-Com: -0.509D-05 0.115D-04 0.787D-05-0.305D-04-0.281D-03 0.217D-04
 Coeff-Com:  0.166D-02 0.334D-02-0.184D-02-0.218D-01-0.477D-01 0.462D-01
 Coeff-Com:  0.327D+00 0.693D+00
 Coeff:     -0.509D-05 0.115D-04 0.787D-05-0.305D-04-0.281D-03 0.217D-04
 Coeff:      0.166D-02 0.334D-02-0.184D-02-0.218D-01-0.477D-01 0.462D-01
 Coeff:      0.327D+00 0.693D+00
 Gap=     0.221 Goal=   None    Shift=    0.000
 RMSDP=9.87D-09 MaxDP=4.03D-07 DE=-9.16D-11 OVMax= 1.29D-06

 Error on total polarization charges =  0.01513
 SCF Done:  E(RCAM-B3LYP) =  -782.730496256     A.U. after   14 cycles
            NFock= 14  Conv=0.99D-08     -V/T= 2.0033
 KE= 7.801258186257D+02 PE=-4.403606970390D+03 EE= 1.549312125443D+03
 Leave Link  502 at Wed Jan 22 11:28:42 2025, MaxMem= 25501368320 cpu:            1234.2 elap:              35.3
 (Enter /share/Apps/gaussian/g16/l801.exe)
 DoSCS=F DFT=T ScalE2(SS,OS)=  1.000000  1.000000
 ExpMin= 1.03D-01 ExpMax= 6.29D+03 ExpMxC= 9.49D+02 IAcc=3 IRadAn=         5 AccDes= 0.00D+00
 HarFok:  IExCor=  205 AccDes= 0.00D+00 IRadAn=         5 IDoV=-2 UseB2=F ITyADJ=14
 ICtDFT= 12500011 ScaDFX=  1.000000  1.000000  1.000000  1.000000
 Largest valence mixing into a core orbital is  5.12D-05
 Largest core mixing into a valence orbital is  1.72D-05
 Range of M.O.s used for correlation:    20   432
 NBasis=   432 NAE=    66 NBE=    66 NFC=    19 NFV=     0
 NROrb=    413 NOA=    47 NOB=    47 NVA=   366 NVB=   366

 **** Warning!!: The largest alpha MO coefficient is  0.20995565D+02

 Leave Link  801 at Wed Jan 22 11:28:42 2025, MaxMem= 25501368320 cpu:               4.1 elap:               0.2
 (Enter /share/Apps/gaussian/g16/l914.exe)
 RHF ground state
 Two-electron integrals replicated using symmetry.
 MDV= 25501368320 DFT=T DoStab=F Mixed=T DoRPA=T DoScal=F NonHer=T
 NEqPCM:  Using non-equilibrium solvation (IEInf=1, Eps=  35.6880, EpsInf=   1.8069)
 Inv3:  Mode=1 IEnd=    20813868.
 Iteration    1 A*A^-1 deviation from unit magnitude is 3.77D-15 for    870.
 Iteration    1 A*A^-1 deviation from orthogonality  is 1.72D-15 for   2128    688.
 Iteration    1 A^-1*A deviation from unit magnitude is 3.55D-15 for    870.
 Iteration    1 A^-1*A deviation from orthogonality  is 1.80D-15 for   2250    211.
 Making orbital integer symmetry assigments:
 Orbital symmetries:
       Occupied  (A) (A) (A) (A) (A) (A) (A) (A) (A) (A) (A) (A)
                 (A) (A) (A) (A) (A) (A) (A) (A) (A) (A) (A) (A)
                 (A) (A) (A) (A) (A) (A) (A) (A) (A) (A) (A) (A)
                 (A) (A) (A) (A) (A) (A) (A) (A) (A) (A) (A) (A)
                 (A) (A) (A) (A) (A) (A) (A) (A) (A) (A) (A) (A)
                 (A) (A) (A) (A) (A) (A)
       Virtual   (A) (A) (A) (A) (A) (A) (A) (A) (A) (A) (A) (A)
                 (A) (A) (A) (A) (A) (A) (A) (A) (A) (A) (A) (A)
                 (A) (A) (A) (A) (A) (A) (A) (A) (A) (A) (A) (A)
                 (A) (A) (A) (A) (A) (A) (A) (A) (A) (A) (A) (A)
                 (A) (A) (A) (A) (A) (A) (A) (A) (A) (A) (A) (A)
                 (A) (A) (A) (A) (A) (A) (A) (A) (A) (A) (A) (A)
                 (A) (A) (A) (A) (A) (A) (A) (A) (A) (A) (A) (A)
                 (A) (A) (A) (A) (A) (A) (A) (A) (A) (A) (A) (A)
                 (A) (A) (A) (A) (A) (A) (A) (A) (A) (A) (A) (A)
                 (A) (A) (A) (A) (A) (A) (A) (A) (A) (A) (A) (A)
                 (A) (A) (A) (A) (A) (A) (A) (A) (A) (A) (A) (A)
                 (A) (A) (A) (A) (A) (A) (A) (A) (A) (A) (A) (A)
                 (A) (A) (A) (A) (A) (A) (A) (A) (A) (A) (A) (A)
                 (A) (A) (A) (A) (A) (A) (A) (A) (A) (A) (A) (A)
                 (A) (A) (A) (A) (A) (A) (A) (A) (A) (A) (A) (A)
                 (A) (A) (A) (A) (A) (A) (A) (A) (A) (A) (A) (A)
                 (A) (A) (A) (A) (A) (A) (A) (A) (A) (A) (A) (A)
                 (A) (A) (A) (A) (A) (A) (A) (A) (A) (A) (A) (A)
                 (A) (A) (A) (A) (A) (A) (A) (A) (A) (A) (A) (A)
                 (A) (A) (A) (A) (A) (A) (A) (A) (A) (A) (A) (A)
                 (A) (A) (A) (A) (A) (A) (A) (A) (A) (A) (A) (A)
                 (A) (A) (A) (A) (A) (A) (A) (A) (A) (A) (A) (A)
                 (A) (A) (A) (A) (A) (A) (A) (A) (A) (A) (A) (A)
                 (A) (A) (A) (A) (A) (A) (A) (A) (A) (A) (A) (A)
                 (A) (A) (A) (A) (A) (A) (A) (A) (A) (A) (A) (A)
                 (A) (A) (A) (A) (A) (A) (A) (A) (A) (A) (A) (A)
                 (A) (A) (A) (A) (A) (A) (A) (A) (A) (A) (A) (A)
                 (A) (A) (A) (A) (A) (A) (A) (A) (A) (A) (A) (A)
                 (A) (A) (A) (A) (A) (A) (A) (A) (A) (A) (A) (A)
                 (A) (A) (A) (A) (A) (A) (A) (A) (A) (A) (A) (A)
                 (A) (A) (A) (A) (A) (A)
    80 initial guesses have been made.
 Convergence on wavefunction:    0.001000000000000
 Davidson Disk Diagonalization:  ConvIn= 1.00D-03 SkipCon=T Conv= 1.00D-03.
 Max sub-space:  2000 roots to seek:    80 dimension of matrix:        34404
 Iteration     1 Dimension    80 NMult     0 NNew     80
 CISAX will form    80 AO SS matrices at one time.
 NMat=    80 NSing=    80 JSym2X= 0.
 FoFJK:  IHMeth= 1 ICntrl=       0 DoSepK=T KAlg= 0 I1Cent=           0 FoldK=F
 IRaf=         1 NMat=     160 IRICut=       1 DoRegI=T DoRafI=F ISym2E= 0 IDoP0=3 IntGTp=3.
 New state      1 was old state      3
 New state      2 was old state      1
 New state      3 was old state      2
 New state      4 was old state      6
 New state      5 was old state      9
 New state      6 was old state      4
 New state      7 was old state      5
 New state      8 was old state     10
 New state      9 was old state      7
 New state     10 was old state     14
 New state     12 was old state      8
 New state     13 was old state     25
 New state     14 was old state     13
 New state     15 was old state     16
 New state     16 was old state     15
 New state     17 was old state     20
 New state     18 was old state     21
 New state     19 was old state     22
 New state     20 was old state     34
 Excitation Energies [eV] at current iteration:
 Root      1 :     3.146586077630536
 Root      2 :     4.090468491950271
 Root      3 :     4.772102498423615
 Root      4 :     4.991678585690824
 Root      5 :     5.264868692706375
 Root      6 :     5.353529018059319
 Root      7 :     5.700754947423832
 Root      8 :     6.035033595360100
 Root      9 :     6.124722429455121
 Root     10 :     6.166372868562509
 Root     11 :     6.351537964586792
 Root     12 :     6.671455364445820
 Root     13 :     6.761001470069231
 Root     14 :     6.938397733684414
 Root     15 :     6.957117334241117
 Root     16 :     7.031642798090537
 Root     17 :     7.182415382956305
 Root     18 :     7.265508988939927
 Root     19 :     7.279363531498018
 Root     20 :     7.355605040407627
 Root     21 :     7.406256602175317
 Root     22 :     7.420568652444548
 Root     23 :     7.513606376120398
 Root     24 :     7.688091679068477
 Root     25 :     7.693508671942014
 Root     26 :     7.779551599173122
 Root     27 :     7.856039251421913
 Root     28 :     7.877968936712814
 Root     29 :     7.920031570241304
 Root     30 :     7.957872893423073
 Root     31 :     8.015185371622719
 Root     32 :     8.044970310097042
 Root     33 :     8.123559690741631
 Root     34 :     8.148386244522909
 Root     35 :     8.235143827829221
 Root     36 :     8.250643412020963
 Root     37 :     8.308154053280035
 Root     38 :     8.402496712538477
 Root     39 :     8.416467419962782
 Root     40 :     8.469061649745409
 Root     41 :     8.496206271430175
 Root     42 :     8.563228303963887
 Root     43 :     8.606961603039531
 Root     44 :     8.685714439057653
 Root     45 :     8.719755928084613
 Root     46 :     8.783313663926265
 Root     47 :     8.849338275240159
 Root     48 :     8.856327637082730
 Root     49 :     8.927076012644669
 Root     50 :     8.966124106194785
 Root     51 :     8.969855306721174
 Root     52 :     8.998005018562035
 Root     53 :     9.011134664225922
 Root     54 :     9.115192181442847
 Root     55 :     9.118612695625464
 Root     56 :     9.135698683308506
 Root     57 :     9.203883046148063
 Root     58 :     9.217750433908849
 Root     59 :     9.231665385742819
 Root     60 :     9.262537012243968
 Root     61 :     9.267488988213948
 Root     62 :     9.336194217310938
 Root     63 :     9.343590628477846
 Root     64 :     9.353204504729433
 Root     65 :     9.359614418162955
 Root     66 :     9.494412116066082
 Root     67 :     9.581141308920603
 Root     68 :     9.587257299246223
 Root     69 :     9.658100460844734
 Root     70 :     9.788361167627357
 Root     71 :     9.801077392979682
 Root     72 :     9.813819223831999
 Root     73 :     9.893835125644259
 Root     74 :     9.897342447103647
 Root     75 :     9.911524971591744
 Root     76 :     9.938999288427267
 Root     77 :     9.992409289948396
 Root     78 :    10.088570259029991
 Root     79 :    10.141315641960365
 Root     80 :    10.179348678740704
 Iteration     2 Dimension   120 NMult    80 NNew     40
 CISAX will form    40 AO SS matrices at one time.
 NMat=    40 NSing=    40 JSym2X= 0.
 Root      1 not converged, maximum delta is    0.029193334769750
 Root      2 not converged, maximum delta is    0.045721390631598
 Root      3 not converged, maximum delta is    0.055260388723272
 Root      4 not converged, maximum delta is    0.089942318690898
 Root      5 not converged, maximum delta is    0.326787425078575
 Root      6 not converged, maximum delta is    0.256589052405365
 Root      7 not converged, maximum delta is    0.131320073353350
 New state      8 was old state      9
 Root      8 not converged, maximum delta is    0.098866959875116
 New state      9 was old state      8
 Root      9 not converged, maximum delta is    0.062606957608709
 New state     10 was old state     11
 Root     10 not converged, maximum delta is    0.285384491011159
 New state     11 was old state     10
 Root     11 not converged, maximum delta is    0.178996828419765
 Root     12 not converged, maximum delta is    0.315001634430934
 New state     13 was old state     14
 Root     13 not converged, maximum delta is    0.250948730745104
 New state     14 was old state     16
 Root     14 not converged, maximum delta is    0.319788273847588
 New state     15 was old state     13
 Root     15 not converged, maximum delta is    0.107081891505040
 New state     16 was old state     15
 Root     16 not converged, maximum delta is    0.129761965944170
 Root     17 not converged, maximum delta is    0.299809071532889
 New state     18 was old state     20
 Root     18 not converged, maximum delta is    0.232329050840436
 New state     19 was old state     25
 Root     19 not converged, maximum delta is    0.114826215149162
 New state     20 was old state     18
 Root     20 not converged, maximum delta is    0.208101797403964
 Excitation Energies [eV] at current iteration:
 Root      1 :     3.006442438886214   Change is   -0.140143638744322
 Root      2 :     3.630516079590619   Change is   -0.459952412359652
 Root      3 :     4.591812204728224   Change is   -0.180290293695390
 Root      4 :     4.917322225383796   Change is   -0.074356360307028
 Root      5 :     4.980135640164646   Change is   -0.284733052541728
 Root      6 :     5.132832648296385   Change is   -0.220696369762935
 Root      7 :     5.407673479255339   Change is   -0.293081468168492
 Root      8 :     5.816445953425892   Change is   -0.308276476029229
 Root      9 :     5.962088542111612   Change is   -0.072945053248489
 Root     10 :     6.060772013105091   Change is   -0.290765951481701
 Root     11 :     6.105667318943787   Change is   -0.060705549618722
 Root     12 :     6.215788030918264   Change is   -0.455667333527556
 Root     13 :     6.452047980317974   Change is   -0.486349753366441
 Root     14 :     6.525100222951125   Change is   -0.506542575139412
 Root     15 :     6.556983688768558   Change is   -0.204017781300672
 Root     16 :     6.877514409620783   Change is   -0.079602924620333
 Root     17 :     6.926251256699564   Change is   -0.256164126256742
 Root     18 :     7.027356379923319   Change is   -0.328248660484308
 Root     19 :     7.141638789469218   Change is   -0.551869882472795
 Root     20 :     7.173905991031659   Change is   -0.091602997908268
 Iteration     3 Dimension   160 NMult   120 NNew     40
 CISAX will form    40 AO SS matrices at one time.
 NMat=    40 NSing=    40 JSym2X= 0.
 Root      1 not converged, maximum delta is    0.002886346516469
 Root      2 not converged, maximum delta is    0.004596997880948
 Root      3 not converged, maximum delta is    0.004256046251796
 Root      4 not converged, maximum delta is    0.030247941692350
 Root      5 not converged, maximum delta is    0.032359646221109
 Root      6 not converged, maximum delta is    0.014740908931009
 Root      7 not converged, maximum delta is    0.008323236742722
 Root      8 not converged, maximum delta is    0.017186325670541
 Root      9 not converged, maximum delta is    0.008878018747799
 Root     10 not converged, maximum delta is    0.049620667174035
 Root     11 not converged, maximum delta is    0.047713459887043
 Root     12 not converged, maximum delta is    0.036022465456895
 Root     13 not converged, maximum delta is    0.025297851239981
 Root     14 not converged, maximum delta is    0.035257747635187
 Root     15 not converged, maximum delta is    0.006117467328438
 Root     16 not converged, maximum delta is    0.021378793112982
 Root     17 not converged, maximum delta is    0.239756919951674
 New state     18 was old state     19
 Root     18 not converged, maximum delta is    0.237503981758607
 New state     19 was old state     18
 Root     19 not converged, maximum delta is    0.030466859598271
 Root     20 not converged, maximum delta is    0.064890615636796
 Excitation Energies [eV] at current iteration:
 Root      1 :     3.003963043517878   Change is   -0.002479395368336
 Root      2 :     3.611520317785996   Change is   -0.018995761804623
 Root      3 :     4.586292235924677   Change is   -0.005519968803547
 Root      4 :     4.914614950222849   Change is   -0.002707275160948
 Root      5 :     4.964461345329474   Change is   -0.015674294835172
 Root      6 :     5.123153478385677   Change is   -0.009679169910708
 Root      7 :     5.396501170653599   Change is   -0.011172308601741
 Root      8 :     5.794167787279501   Change is   -0.022278166146391
 Root      9 :     5.959026823500722   Change is   -0.003061718610889
 Root     10 :     6.044289613599209   Change is   -0.016482399505882
 Root     11 :     6.099112579880460   Change is   -0.006554739063327
 Root     12 :     6.183208339965205   Change is   -0.032579690953059
 Root     13 :     6.433774142007869   Change is   -0.018273838310104
 Root     14 :     6.494385751621698   Change is   -0.030714471329428
 Root     15 :     6.549915623368061   Change is   -0.007068065400498
 Root     16 :     6.874595909305880   Change is   -0.002918500314904
 Root     17 :     6.900902783266625   Change is   -0.025348473432938
 Root     18 :     6.954133600199540   Change is   -0.187505189269679
 Root     19 :     7.008991943180071   Change is   -0.018364436743248
 Root     20 :     7.152711602826105   Change is   -0.021194388205554
 Iteration     4 Dimension   200 NMult   160 NNew     40
 CISAX will form    40 AO SS matrices at one time.
 NMat=    40 NSing=    40 JSym2X= 0.
 Root      1 has converged.
 Root      2 not converged, maximum delta is    0.001069157484837
 Root      3 has converged.
 Root      4 not converged, maximum delta is    0.002251205243176
 Root      5 not converged, maximum delta is    0.002428251422062
 Root      6 has converged.
 Root      7 has converged.
 Root      8 not converged, maximum delta is    0.001359857313958
 Root      9 not converged, maximum delta is    0.002465674953983
 Root     10 not converged, maximum delta is    0.002158471569777
 Root     11 not converged, maximum delta is    0.005514548068010
 Root     12 not converged, maximum delta is    0.003036600419470
 Root     13 not converged, maximum delta is    0.001433965127399
 Root     14 not converged, maximum delta is    0.006919915588150
 Root     15 not converged, maximum delta is    0.003293163662349
 Root     16 not converged, maximum delta is    0.010707107558005
 Root     17 not converged, maximum delta is    0.044098863814946
 Root     18 not converged, maximum delta is    0.043026668302636
 Root     19 not converged, maximum delta is    0.013441675230427
 No map to state     20
 Excitation Energies [eV] at current iteration:
 Root      1 :     3.003904953799835   Change is   -0.000058089718044
 Root      2 :     3.610320743444708   Change is   -0.001199574341288
 Root      3 :     4.586020243941167   Change is   -0.000271991983510
 Root      4 :     4.914465035213625   Change is   -0.000149915009224
 Root      5 :     4.963685168566236   Change is   -0.000776176763238
 Root      6 :     5.122481686681223   Change is   -0.000671791704454
 Root      7 :     5.395784522022200   Change is   -0.000716648631398
 Root      8 :     5.793061040848245   Change is   -0.001106746431256
 Root      9 :     5.958804183143784   Change is   -0.000222640356938
 Root     10 :     6.043195123562771   Change is   -0.001094490036437
 Root     11 :     6.098461198136951   Change is   -0.000651381743510
 Root     12 :     6.181323613871321   Change is   -0.001884726093884
 Root     13 :     6.432713612178277   Change is   -0.001060529829592
 Root     14 :     6.491417281560655   Change is   -0.002968470061042
 Root     15 :     6.549320055586637   Change is   -0.000595567781423
 Root     16 :     6.874363797333258   Change is   -0.000232111972621
 Root     17 :     6.894402107416345   Change is   -0.006500675850281
 Root     18 :     6.946048413229065   Change is   -0.008085186970474
 Root     19 :     7.006874419456309   Change is   -0.002117523723762
 Root     20 :     7.096511429741393
 Iteration     5 Dimension   232 NMult   200 NNew     32
 CISAX will form    32 AO SS matrices at one time.
 NMat=    32 NSing=    32 JSym2X= 0.
 Root      1 has converged.
 Root      2 has converged.
 Root      3 has converged.
 Root      4 has converged.
 Root      5 has converged.
 Root      6 has converged.
 Root      7 has converged.
 Root      8 has converged.
 Root      9 has converged.
 Root     10 has converged.
 Root     11 has converged.
 Root     12 has converged.
 Root     13 has converged.
 Root     14 has converged.
 Root     15 has converged.
 Root     16 has converged.
 Root     17 not converged, maximum delta is    0.001712432485366
 Root     18 not converged, maximum delta is    0.008925153549759
 Root     19 not converged, maximum delta is    0.013097057283108
 Root     20 not converged, maximum delta is    0.018876776246204
 Excitation Energies [eV] at current iteration:
 Root      1 :     3.003904629843571   Change is   -0.000000323956263
 Root      2 :     3.610281119607312   Change is   -0.000039623837397
 Root      3 :     4.586018029340879   Change is   -0.000002214600288
 Root      4 :     4.914459807241353   Change is   -0.000005227972272
 Root      5 :     4.963656380674905   Change is   -0.000028787891331
 Root      6 :     5.122469249520957   Change is   -0.000012437160265
 Root      7 :     5.395767104000063   Change is   -0.000017418022137
 Root      8 :     5.793018329841202   Change is   -0.000042711007042
 Root      9 :     5.958792754513429   Change is   -0.000011428630355
 Root     10 :     6.043152056269061   Change is   -0.000043067293710
 Root     11 :     6.098416971993666   Change is   -0.000044226143284
 Root     12 :     6.181235104875098   Change is   -0.000088508996223
 Root     13 :     6.432660362903671   Change is   -0.000053249274606
 Root     14 :     6.491247252135507   Change is   -0.000170029425149
 Root     15 :     6.549276105267665   Change is   -0.000043950318973
 Root     16 :     6.874344983508847   Change is   -0.000018813824412
 Root     17 :     6.894078211891879   Change is   -0.000323895524465
 Root     18 :     6.945483294635205   Change is   -0.000565118593860
 Root     19 :     7.006562700882519   Change is   -0.000311718573790
 Root     20 :     7.052314513869098   Change is   -0.044196915872294
 Iteration     6 Dimension   240 NMult   232 NNew      8
 CISAX will form     8 AO SS matrices at one time.
 NMat=     8 NSing=     8 JSym2X= 0.
 Root      1 has converged.
 Root      2 has converged.
 Root      3 has converged.
 Root      4 has converged.
 Root      5 has converged.
 Root      6 has converged.
 Root      7 has converged.
 Root      8 has converged.
 Root      9 has converged.
 Root     10 has converged.
 Root     11 has converged.
 Root     12 has converged.
 Root     13 has converged.
 Root     14 has converged.
 Root     15 has converged.
 Root     16 has converged.
 Root     17 has converged.
 Root     18 has converged.
 Root     19 not converged, maximum delta is    0.001220492122617
 Root     20 not converged, maximum delta is    0.001956433934335
 Excitation Energies [eV] at current iteration:
 Root      1 :     3.003904585444630   Change is   -0.000000044398942
 Root      2 :     3.610280985363621   Change is   -0.000000134243691
 Root      3 :     4.586017893264419   Change is   -0.000000136076460
 Root      4 :     4.914459782071312   Change is   -0.000000025170042
 Root      5 :     4.963656232643532   Change is   -0.000000148031374
 Root      6 :     5.122469030277320   Change is   -0.000000219243638
 Root      7 :     5.395766724569372   Change is   -0.000000379430691
 Root      8 :     5.793017757804064   Change is   -0.000000572037139
 Root      9 :     5.958792748143622   Change is   -0.000000006369807
 Root     10 :     6.043151893421878   Change is   -0.000000162847184
 Root     11 :     6.098416757999916   Change is   -0.000000213993751
 Root     12 :     6.181234663464683   Change is   -0.000000441410414
 Root     13 :     6.432659899104528   Change is   -0.000000463799143
 Root     14 :     6.491244755557385   Change is   -0.000002496578122
 Root     15 :     6.549275413091413   Change is   -0.000000692176251
 Root     16 :     6.874344276180495   Change is   -0.000000707328352
 Root     17 :     6.894060328918566   Change is   -0.000017882973313
 Root     18 :     6.945447406279991   Change is   -0.000035888355215
 Root     19 :     7.006526732151872   Change is   -0.000035968730646
 Root     20 :     7.050143574242732   Change is   -0.002170939626367
 Iteration     7 Dimension   244 NMult   240 NNew      4
 CISAX will form     4 AO SS matrices at one time.
 NMat=     4 NSing=     4 JSym2X= 0.
 Root      1 has converged.
 Root      2 has converged.
 Root      3 has converged.
 Root      4 has converged.
 Root      5 has converged.
 Root      6 has converged.
 Root      7 has converged.
 Root      8 has converged.
 Root      9 has converged.
 Root     10 has converged.
 Root     11 has converged.
 Root     12 has converged.
 Root     13 has converged.
 Root     14 has converged.
 Root     15 has converged.
 Root     16 has converged.
 Root     17 has converged.
 Root     18 has converged.
 Root     19 has converged.
 Root     20 has converged.
 Excitation Energies [eV] at current iteration:
 Root      1 :     3.003904573096746   Change is   -0.000000012347884
 Root      2 :     3.610280957319150   Change is   -0.000000028044471
 Root      3 :     4.586017807136303   Change is   -0.000000086128117
 Root      4 :     4.914459776576051   Change is   -0.000000005495260
 Root      5 :     4.963656218484278   Change is   -0.000000014159254
 Root      6 :     5.122468950297917   Change is   -0.000000079979402
 Root      7 :     5.395766654452896   Change is   -0.000000070116476
 Root      8 :     5.793017752496352   Change is   -0.000000005307711
 Root      9 :     5.958792747088655   Change is   -0.000000001054967
 Root     10 :     6.043151877896393   Change is   -0.000000015525485
 Root     11 :     6.098416675462537   Change is   -0.000000082537379
 Root     12 :     6.181234653214018   Change is   -0.000000010250666
 Root     13 :     6.432659862161279   Change is   -0.000000036943248
 Root     14 :     6.491244645105867   Change is   -0.000000110451519
 Root     15 :     6.549275323813337   Change is   -0.000000089278077
 Root     16 :     6.874344181532512   Change is   -0.000000094647982
 Root     17 :     6.894060320125397   Change is   -0.000000008793169
 Root     18 :     6.945446508273655   Change is   -0.000000898006335
 Root     19 :     7.006523450426463   Change is   -0.000003281725410
 Root     20 :     7.050018031778072   Change is   -0.000125542464659
 Convergence achieved on expansion vectors.
 ***********************************************************************
 Excited states from <AA,BB:AA,BB> singles matrix:
 ***********************************************************************
 
 1PDM for each excited state written to RWF  633
 Ground to excited state transition densities written to RWF  633
 Ground to excited state transition electric dipole moments (Au):
       state          X           Y           Z        Dip. S.      Osc.
         1         0.1567      0.0113     -0.0091      0.0248      0.0018
         2         3.2963      0.2607      0.0086     10.9337      0.9671
         3        -0.2473      0.1955      0.0028      0.0994      0.0112
         4         0.1308     -0.1483     -0.0176      0.0394      0.0047
         5         0.5332     -1.1243     -0.0052      1.5485      0.1883
         6         0.6586      0.5946      0.0187      0.7877      0.0989
         7        -0.2155      0.2220      0.0335      0.0969      0.0128
         8         0.6794      0.8560     -0.0808      1.2008      0.1704
         9         0.0434      0.0653      0.0062      0.0062      0.0009
        10         0.6044     -1.0929     -0.0049      1.5597      0.2309
        11         0.0662     -0.3439     -0.0224      0.1232      0.0184
        12        -0.5947      1.1802      0.0154      1.7469      0.2645
        13         0.2926      0.3299      0.0150      0.1946      0.0307
        14         0.2566      0.6628      0.0070      0.5053      0.0804
        15        -0.1216      0.0279      0.0328      0.0166      0.0027
        16         0.1643      0.0268      0.1151      0.0410      0.0069
        17         1.4042      0.3733     -0.0056      2.1111      0.3566
        18        -1.1046     -0.2003     -0.0292      1.2612      0.2146
        19        -0.1034     -0.2505      0.1100      0.0855      0.0147
        20         0.0583      1.4854      0.0324      2.2108      0.3818
 Ground to excited state transition velocity dipole moments (Au):
       state          X           Y           Z        Dip. S.      Osc.
         1        -0.0168     -0.0010     -0.0017      0.0003      0.0017
         2        -0.4275     -0.0261     -0.0016      0.1835      0.9220
         3         0.0438     -0.0363     -0.0005      0.0032      0.0128
         4        -0.0231      0.0255      0.0032      0.0012      0.0044
         5        -0.0900      0.2046      0.0004      0.0500      0.1826
         6        -0.1267     -0.1109     -0.0040      0.0284      0.1005
         7         0.0390     -0.0389     -0.0078      0.0031      0.0104
         8        -0.1393     -0.1868      0.0181      0.0546      0.1710
         9        -0.0092     -0.0144     -0.0059      0.0003      0.0010
        10        -0.1386      0.2407      0.0022      0.0771      0.2316
        11        -0.0172      0.0759      0.0001      0.0061      0.0180
        12         0.1371     -0.2595     -0.0032      0.0862      0.2528
        13        -0.0609     -0.0747     -0.0049      0.0093      0.0263
        14        -0.0619     -0.1557     -0.0013      0.0281      0.0785
        15         0.0281     -0.0066     -0.0115      0.0010      0.0027
        16        -0.0413     -0.0067     -0.0224      0.0023      0.0059
        17        -0.3551     -0.0974      0.0008      0.1356      0.3567
        18         0.2826      0.0484      0.0079      0.0822      0.2148
        19         0.0260      0.0641     -0.0364      0.0061      0.0158
        20        -0.0142     -0.3820     -0.0095      0.1462      0.3762
 Ground to excited state transition magnetic dipole moments (Au):
       state          X           Y           Z
         1         0.8909      0.4438      0.0279
         2        -0.0281     -0.0442      0.2834
         3         0.0001      0.0078     -0.5342
         4        -0.0103      0.0059      0.4783
         5         0.0051     -0.0349      0.8203
         6        -0.0039     -0.0121     -1.0828
         7        -0.0047     -0.0551     -1.0972
         8        -0.0026      0.1713      2.2197
         9         0.1143     -0.0215      0.0590
        10        -0.0078     -0.0296      0.5155
        11         0.0976      0.0368      0.0109
        12         0.0214      0.0055      0.0821
        13         0.0707      0.0189      0.1006
        14        -0.0305     -0.0088     -0.4512
        15         0.6095      0.3008     -0.0700
        16         0.0515      0.4433     -0.1991
        17        -0.0002     -0.0098     -1.2434
        18        -0.0151      0.0698      1.9942
        19         0.1942      0.0236      0.3061
        20         0.0158      0.0471     -1.5975
 Ground to excited state transition velocity quadrupole moments (Au):
       state          XX          YY          ZZ          XY          XZ          YZ
         1         0.0687     -0.0192      0.0022      0.0031     -0.0006      0.0704
         2         1.2330     -0.5718     -0.0169      0.0057      0.0103     -0.0273
         3         0.3912     -0.0758     -0.0054      0.0078     -0.0003     -0.0009
         4         0.4022      0.0323     -0.0008      0.3995     -0.0124     -0.0006
         5         0.9208     -0.1085      0.0170      0.6216      0.0244     -0.0065
         6         0.1854      0.0419     -0.0067     -0.5294      0.0088     -0.0027
         7         1.8320      0.2014      0.0149     -0.7369      0.0357      0.0021
         8         1.2321     -0.0309     -0.0060      1.6844     -0.1341     -0.0102
         9         0.1130      0.0082      0.0038      0.0448     -0.0328      0.0395
        10        -1.8029     -0.2891     -0.0048      1.2300      0.0386     -0.0065
        11        -0.7011     -0.0397     -0.0040      0.3348     -0.0160      0.0089
        12         1.6558     -0.1198     -0.0375     -1.7544     -0.0258     -0.0028
        13         1.2018     -0.2353     -0.0341     -0.5773      0.0033      0.0004
        14        -0.5348      0.5053      0.0020     -0.8995     -0.0153      0.0025
        15        -0.3602      0.0910     -0.0005     -0.0341      0.0067      0.0913
        16         0.4335      0.0671      0.0041     -0.0953     -0.3655      0.0373
        17         3.7491      0.6905      0.0100     -0.1903      0.0142      0.0071
        18        -1.7420     -0.7260     -0.0048      1.2859     -0.0854     -0.0017
        19         0.4830     -0.2207      0.0064      0.1968      0.0499      0.0464
        20        -4.3659      1.4397     -0.0278     -1.2779     -0.0361      0.0268
 <0|del|b> * <b|rxdel|0> + <0|del|b> * <b|delr+rdel|0>
 Rotatory Strengths (R) in cgs (10**-40 erg-esu-cm/Gauss)
       state          XX          YY          ZZ    R(velocity)    E-M Angle
         1        -1.5346    -51.8142    -45.4626    -32.9372      156.44
         2         2.5748     61.8929      3.2976     22.5884       84.09
         3        -0.0362      0.5221     -0.4779      0.0027       90.00
         4         6.3268      0.9785      0.1152      2.4735       83.41
         5       -22.4290      0.4072     -6.2069     -9.4096       92.27
         6        16.5062      5.7435      0.9571      7.7356       88.06
         7        31.8599      4.8471      0.8736     12.5269       80.07
         8        22.7525     19.0770    -13.3082      9.5071       89.05
         9        -1.2478     -2.4200      0.1493     -1.1728      117.59
        10       -19.9883      0.6460      3.7259     -5.2055       91.96
        11         6.4012     -2.9585      0.0789      1.1739       82.14
        12        -4.2070     -5.2996     13.3891      1.2942       87.14
        13         1.7552    -11.4478     -8.8846     -6.1924      121.13
        14         1.1939      1.6708      8.5843      3.8164       87.08
        15        -1.0778     29.5718     18.4463     15.6467       41.27
        16         1.7090     -1.8775     -1.5447     -0.5710       91.51
        17         1.7368     -4.5563      3.0397      0.0734       90.00
        18        46.5105      1.2437     -6.2823     13.8239       88.50
        19       -27.4196      3.1496     11.7655     -4.1682       99.22
        20        -6.0573      3.3219     -5.5375     -2.7577       90.28
 1/2[<0|r|b>*<b|rxdel|0> + (<0|rxdel|b>*<b|r|0>)*]
 Rotatory Strengths (R) in cgs (10**-40 erg-esu-cm/Gauss)
       state          XX          YY          ZZ     R(length)
         1       -98.7112     -3.5547      0.1785    -34.0291
         2        65.4685      8.1427     -1.7174     23.9646
         3         0.0102     -1.0811      1.0617     -0.0031
         4         0.9533      0.6147      5.9652      2.5110
         5        -1.9069    -27.7452      3.0270     -8.8750
         6         1.8034      5.0852     14.3362      7.0749
         7        -0.7100      8.6570     25.9872     11.3114
         8         1.2521   -103.6869    126.8474      8.1376
         9        -3.5083      0.9903     -0.2586     -0.9255
        10         3.3339    -22.8784      1.7711     -5.9245
        11        -4.5654      8.9471      0.1734      1.5184
        12         9.0127     -4.5812     -0.8940      1.1792
        13       -14.6295     -4.4036     -1.0706     -6.7012
        14         5.5334      4.1232      2.2481      3.9682
        15        52.4228     -5.9307      1.6224     16.0381
        16        -5.9853     -8.4127     16.2164      0.6061
        17         0.2070      2.5822     -4.8865     -0.6991
        18       -11.7654      9.8911     41.2188     13.1148
        19        14.1972      4.1863    -23.8108     -1.8091
        20        -0.6503    -49.5130     36.6179     -4.5151
  1/2[<0|del|b>*<b|r|0> + (<0|r|b>*<b|del|0>)*] (Au)
       state          X           Y           Z        Dip. S.   Osc.(frdel)
         1        -0.0026     -0.0000      0.0000      0.0026      0.0017
         2        -1.4093     -0.0068     -0.0000      1.4162      0.9441
         3        -0.0108     -0.0071     -0.0000      0.0179      0.0120
         4        -0.0030     -0.0038     -0.0001      0.0069      0.0046
         5        -0.0480     -0.2301     -0.0000      0.2781      0.1854
         6        -0.0835     -0.0659     -0.0001      0.1495      0.0997
         7        -0.0084     -0.0086     -0.0003      0.0173      0.0115
         8        -0.0946     -0.1599     -0.0015      0.2560      0.1706
         9        -0.0004     -0.0009     -0.0000      0.0014      0.0009
        10        -0.0838     -0.2630     -0.0000      0.3468      0.2312
        11        -0.0011     -0.0261     -0.0000      0.0273      0.0182
        12        -0.0815     -0.3063     -0.0000      0.3879      0.2586
        13        -0.0178     -0.0247     -0.0001      0.0425      0.0284
        14        -0.0159     -0.1032     -0.0000      0.1191      0.0794
        15        -0.0034     -0.0002     -0.0004      0.0040      0.0027
        16        -0.0068     -0.0002     -0.0026      0.0096      0.0064
        17        -0.4986     -0.0364     -0.0000      0.5350      0.3566
        18        -0.3121     -0.0097     -0.0002      0.3221      0.2147
        19        -0.0027     -0.0161     -0.0040      0.0228      0.0152
        20        -0.0008     -0.5674     -0.0003      0.5685      0.3790

 Excitation energies and oscillator strengths:
 
 Excited State   1:      Singlet-A      3.0039 eV  412.74 nm  f=0.0018  <S**2>=0.000
      64 -> 67         0.68474
      64 -> 71         0.11874
 This state for optimization and/or second-order correction.
 Total Energy, E(TD-HF/TD-DFT) =  -782.620104794    
 Copying the excited state density for this state as the 1-particle RhoCI density.
 
 Excited State   2:      Singlet-A      3.6103 eV  343.42 nm  f=0.9671  <S**2>=0.000
      66 -> 67         0.69270
 
 Excited State   3:      Singlet-A      4.5860 eV  270.35 nm  f=0.0112  <S**2>=0.000
      65 -> 67         0.61394
      66 -> 68         0.28495
 
 Excited State   4:      Singlet-A      4.9145 eV  252.28 nm  f=0.0047  <S**2>=0.000
      62 -> 67         0.54066
      62 -> 71        -0.11316
      63 -> 69        -0.21194
      66 -> 68         0.16382
      66 -> 69        -0.30345
 
 Excited State   5:      Singlet-A      4.9637 eV  249.78 nm  f=0.1883  <S**2>=0.000
      62 -> 67        -0.12287
      63 -> 67         0.29023
      65 -> 67        -0.17839
      65 -> 68         0.20141
      66 -> 68         0.51772
      66 -> 69         0.10431
      66 -> 70        -0.11930
 
 Excited State   6:      Singlet-A      5.1225 eV  242.04 nm  f=0.0989  <S**2>=0.000
      63 -> 67         0.31203
      63 -> 70         0.11844
      65 -> 67         0.26225
      65 -> 68         0.40099
      66 -> 68        -0.28321
      66 -> 70        -0.22257
 
 Excited State   7:      Singlet-A      5.3958 eV  229.78 nm  f=0.0128  <S**2>=0.000
      61 -> 67        -0.14271
      63 -> 67         0.52226
      65 -> 68        -0.31475
      66 -> 70         0.22188
 
 Excited State   8:      Singlet-A      5.7930 eV  214.02 nm  f=0.1704  <S**2>=0.000
      62 -> 67         0.40069
      63 -> 69         0.14103
      66 -> 69         0.53384
      66 -> 70         0.10143
 
[...]
     4  C    0.010285  -0.001026   0.000817   0.000133   0.000254  -0.000002
     5  C   -0.000010   0.000057  -0.000091   0.000021   0.000349  -0.000000
     6  C   -0.000384   0.008186  -0.000132   0.000003  -0.000011   0.000000
     7  C   -0.039752   0.007706   0.000631   0.000029   0.000090   0.000001
     8  C    0.007691  -0.040499  -0.000002   0.000000  -0.000000   0.000000
     9  C    0.419984  -0.041986   0.000022  -0.000009   0.000001  -0.000000
    10  H   -0.007947  -0.000143   0.000467  -0.000780   0.000506  -0.000040
    11  C   -0.043278   0.422812   0.000002  -0.000000   0.000000  -0.000000
    12  H   -0.000229  -0.006904  -0.000000   0.000000  -0.000000   0.000000
    13  H    0.545922  -0.007509  -0.000004   0.000002  -0.000000   0.000000
    14  H   -0.007509   0.541709   0.000000  -0.000000   0.000000  -0.000000
    15  C   -0.000004   0.000000   5.074573   0.468077   0.261087  -0.035056
    16  C    0.000002  -0.000000   0.468077   4.891767  -0.009127   0.512828
    17  C   -0.000000   0.000000   0.261087  -0.009127   5.155463  -0.056164
    18  C    0.000000  -0.000000  -0.035056   0.512828  -0.056164   4.883048
    19  H   -0.000014   0.000000  -0.053355   0.412321   0.015166  -0.039022
    20  C    0.000000  -0.000000   0.017649  -0.050536   0.428925  -0.050780
    21  H   -0.000000   0.000000  -0.069657   0.008467   0.435896  -0.001868
    22  C   -0.000000   0.000000  -0.052038  -0.058403  -0.043128   0.515123
    23  H    0.000000  -0.000000   0.008439  -0.039366  -0.001175   0.422669
    24  H   -0.000000   0.000000   0.006908  -0.000600  -0.037536   0.006718
    25  H   -0.000000   0.000000  -0.001808   0.007970   0.008839  -0.041293
    26  N    0.000004  -0.000162   0.000001  -0.000000  -0.000000   0.000000
    27  C   -0.000000  -0.000032  -0.000000   0.000000  -0.000000  -0.000000
    28  H    0.000000   0.000002   0.000000   0.000000   0.000000   0.000000
    29  H    0.000000   0.000002   0.000000  -0.000000   0.000000  -0.000000
    30  H    0.000000  -0.000001  -0.000000  -0.000000   0.000000   0.000000
    31  C   -0.000000   0.000000   0.000004  -0.000000  -0.000115  -0.000000
    32  H    0.000000   0.000000  -0.000002   0.000000  -0.000002  -0.000000
    33  H   -0.000000   0.000000  -0.000351   0.000019  -0.000134  -0.000002
    34  H    0.000000   0.000000   0.000000  -0.000000  -0.000008  -0.000000
              19         20         21         22         23         24
     1  N   -0.000633  -0.002015   0.031243   0.000218   0.000007  -0.000099
     2  N    0.008072   0.009384  -0.019308  -0.000847  -0.000194  -0.000084
     3  C    0.000200  -0.000262   0.003023   0.000022  -0.000001  -0.000004
     4  C   -0.000245  -0.000008   0.000901   0.000000   0.000000  -0.000000
     5  C    0.000023  -0.000002  -0.000353   0.000000   0.000000   0.000000
     6  C   -0.000017   0.000000  -0.000073  -0.000000   0.000000   0.000000
     7  C   -0.000111  -0.000002   0.000083   0.000000   0.000000  -0.000000
     8  C   -0.000001   0.000000  -0.000000  -0.000000   0.000000   0.000000
     9  C    0.000036  -0.000000   0.000000   0.000000  -0.000000  -0.000000
    10  H    0.002559  -0.000024   0.000083   0.000008  -0.000005   0.000000
    11  C    0.000002  -0.000000   0.000000   0.000000  -0.000000  -0.000000
    12  H   -0.000000   0.000000  -0.000000  -0.000000   0.000000   0.000000
    13  H   -0.000014   0.000000  -0.000000  -0.000000   0.000000  -0.000000
    14  H    0.000000  -0.000000   0.000000   0.000000  -0.000000   0.000000
    15  C   -0.053355   0.017649  -0.069657  -0.052038   0.008439   0.006908
    16  C    0.412321  -0.050536   0.008467  -0.058403  -0.039366  -0.000600
    17  C    0.015166   0.428925   0.435896  -0.043128  -0.001175  -0.037536
    18  C   -0.039022  -0.050780  -0.001868   0.515123   0.422669   0.006718
    19  H    0.536606  -0.002741   0.000192   0.007962  -0.007760   0.000051
    20  C   -0.002741   4.935757  -0.046687   0.499282   0.007096   0.421347
    21  H    0.000192  -0.046687   0.525015   0.007836   0.000034  -0.006831
    22  C    0.007962   0.499282   0.007836   4.893153  -0.041014  -0.039617
    23  H   -0.007760   0.007096   0.000034  -0.041014   0.537163  -0.000289
    24  H    0.000051   0.421347  -0.006831  -0.039617  -0.000289   0.535114
    25  H   -0.000145  -0.042163  -0.000093   0.423954  -0.007069  -0.006974
    26  N   -0.000000   0.000000  -0.000004  -0.000000  -0.000000   0.000000
    27  C    0.000000  -0.000000  -0.000000   0.000000   0.000000   0.000000
    28  H   -0.000000   0.000000   0.000000  -0.000000  -0.000000  -0.000000
    29  H    0.000000  -0.000000   0.000000   0.000000  -0.000000  -0.000000
    30  H   -0.000000   0.000000  -0.000001  -0.000000   0.000000   0.000000
    31  C    0.000001   0.000002   0.000323   0.000000  -0.000000  -0.000000
    32  H    0.000000  -0.000000  -0.000011   0.000000   0.000000   0.000000
    33  H    0.000004  -0.000033   0.002770   0.000003  -0.000000  -0.000006
    34  H    0.000000  -0.000000  -0.000007   0.000000  -0.000000   0.000000
              25         26         27         28         29         30
     1  N    0.000004   0.002351  -0.000058   0.000004   0.000003  -0.000002
     2  N   -0.000004  -0.000003   0.000004  -0.000000  -0.000000   0.000000
     3  C    0.000000  -0.049573   0.008619  -0.000324  -0.000309   0.001420
     4  C    0.000000  -0.060260   0.007017   0.000583   0.000583  -0.001061
     5  C   -0.000000   0.433443  -0.061602   0.003626   0.003679  -0.015460
     6  C   -0.000000   0.401452  -0.066437  -0.005803  -0.005902   0.007153
     7  C    0.000000   0.006983  -0.000221   0.000005   0.000002  -0.000004
     8  C   -0.000000  -0.054629  -0.005126   0.001415   0.001445   0.000228
     9  C    0.000000  -0.000007   0.000039  -0.000029  -0.000028   0.000001
    10  H    0.000000  -0.000105   0.000015   0.000000   0.000000  -0.000001
    11  C    0.000000   0.004472  -0.000120   0.000056   0.000058   0.000015
    12  H   -0.000000  -0.005485   0.003568  -0.000406  -0.000409   0.000001
    13  H   -0.000000   0.000004  -0.000000   0.000000   0.000000   0.000000
    14  H    0.000000  -0.000162  -0.000032   0.000002   0.000002  -0.000001
    15  C   -0.001808   0.000001  -0.000000   0.000000   0.000000  -0.000000
    16  C    0.007970  -0.000000   0.000000   0.000000  -0.000000  -0.000000
    17  C    0.008839  -0.000000  -0.000000   0.000000   0.000000   0.000000
    18  C   -0.041293   0.000000  -0.000000   0.000000  -0.000000   0.000000
    19  H   -0.000145  -0.000000   0.000000  -0.000000   0.000000  -0.000000
    20  C   -0.042163   0.000000  -0.000000   0.000000  -0.000000   0.000000
    21  H   -0.000093  -0.000004  -0.000000   0.000000   0.000000  -0.000001
    22  C    0.423954  -0.000000   0.000000  -0.000000   0.000000  -0.000000
    23  H   -0.007069  -0.000000   0.000000  -0.000000  -0.000000   0.000000
    24  H   -0.006974   0.000000   0.000000  -0.000000  -0.000000   0.000000
    25  H    0.536790  -0.000000  -0.000000   0.000000   0.000000  -0.000000
    26  N   -0.000000   6.640717   0.289464  -0.034617  -0.034534  -0.016214
    27  C   -0.000000   0.289464   4.779833   0.409830   0.409826   0.406930
    28  H    0.000000  -0.034617   0.409830   0.533610  -0.034992  -0.021898
    29  H    0.000000  -0.034534   0.409826  -0.034992   0.533588  -0.021882
    30  H   -0.000000  -0.016214   0.406930  -0.021898  -0.021882   0.510958
    31  C    0.000000  -0.051365  -0.005916   0.000019  -0.000004   0.003249
    32  H    0.000000  -0.002498  -0.000684   0.000092  -0.000048  -0.000962
    33  H    0.000000   0.003904   0.000478  -0.000011  -0.000015   0.000209
    34  H    0.000000  -0.002512  -0.000666  -0.000053   0.000093  -0.000976
              31         32         33         34
     1  N    0.002589  -0.000028   0.012690  -0.000053
     2  N   -0.000240   0.000016  -0.000825   0.000017
     3  C   -0.088244   0.001176  -0.015970   0.001298
     4  C    0.028562   0.000270   0.003716   0.000250
     5  C    0.318613  -0.040599  -0.025715  -0.040565
     6  C   -0.004627  -0.000559  -0.000990  -0.000545
     7  C    0.000687   0.000025   0.000113   0.000024
     8  C   -0.000410  -0.000012  -0.000007  -0.000011
     9  C   -0.000006  -0.000001  -0.000000  -0.000001
    10  H    0.000055   0.000001   0.000019   0.000001
    11  C    0.000013  -0.000001   0.000000  -0.000001
    12  H   -0.000017  -0.000002  -0.000000  -0.000002
    13  H   -0.000000   0.000000  -0.000000   0.000000
    14  H    0.000000   0.000000   0.000000   0.000000
    15  C    0.000004  -0.000002  -0.000351   0.000000
    16  C   -0.000000   0.000000   0.000019  -0.000000
    17  C   -0.000115  -0.000002  -0.000134  -0.000008
    18  C   -0.000000  -0.000000  -0.000002  -0.000000
    19  H    0.000001   0.000000   0.000004   0.000000
    20  C    0.000002  -0.000000  -0.000033  -0.000000
    21  H    0.000323  -0.000011   0.002770  -0.000007
    22  C    0.000000   0.000000   0.000003   0.000000
    23  H   -0.000000   0.000000  -0.000000  -0.000000
    24  H   -0.000000   0.000000  -0.000006   0.000000
    25  H    0.000000   0.000000   0.000000   0.000000
    26  N   -0.051365  -0.002498   0.003904  -0.002512
    27  C   -0.005916  -0.000684   0.000478  -0.000666
    28  H    0.000019   0.000092  -0.000011  -0.000053
    29  H   -0.000004  -0.000048  -0.000015   0.000093
    30  H    0.003249  -0.000962   0.000209  -0.000976
    31  C    4.847121   0.409725   0.409796   0.409751
    32  H    0.409725   0.532314  -0.018706  -0.029873
    33  H    0.409796  -0.018706   0.502106  -0.018989
    34  H    0.409751  -0.029873  -0.018989   0.532370
 Mulliken charges:
               1
     1  N   -0.173291
     2  N   -0.239850
     3  C   -0.089914
     4  C   -0.059044
     5  C    0.224590
     6  C    0.198012
     7  C   -0.077448
     8  C   -0.083273
     9  C   -0.132844
    10  H    0.110236
    11  C   -0.130876
    12  H    0.128860
    13  H    0.115320
    14  H    0.117895
    15  C    0.009409
    16  C   -0.083437
    17  C   -0.059971
    18  C   -0.120535
    19  H    0.120848
    20  C   -0.124190
    21  H    0.129025
    22  C   -0.112515
    23  H    0.121466
    24  H    0.121903
    25  H    0.121993
    26  N   -0.470823
    27  C   -0.174761
    28  H    0.148890
    29  H    0.148843
    30  H    0.148296
    31  C   -0.279568
    32  H    0.150366
    33  H    0.145928
    34  H    0.150459
 Sum of Mulliken charges =  -0.00000
 Mulliken charges with hydrogens summed into heavy atoms:
               1
     1  N   -0.173291
     2  N   -0.239850
     3  C   -0.089914
     4  C   -0.059044
     5  C    0.224590
     6  C    0.198012
     7  C    0.032789
     8  C    0.045587
     9  C   -0.017525
    11  C   -0.012981
    15  C    0.009409
    16  C    0.037412
    17  C    0.069054
    18  C    0.000931
    20  C   -0.002287
    22  C    0.009478
    26  N   -0.470823
    27  C    0.271268
    31  C    0.167185
 Electronic spatial extent (au):  <R**2>=           6403.7194
 Charge=              0.0000 electrons
 Dipole moment (field-independent basis, Debye):
    X=              4.2311    Y=              3.9889    Z=              0.0277  Tot=              5.8150
 Quadrupole moment (field-independent basis, Debye-Ang):
   XX=            -81.9303   YY=            -93.6966   ZZ=           -117.5377
   XY=             10.9295   XZ=              0.1553   YZ=             -0.4734
 Traceless Quadrupole moment (field-independent basis, Debye-Ang):
   XX=             15.7912   YY=              4.0249   ZZ=            -19.8162
   XY=             10.9295   XZ=              0.1553   YZ=             -0.4734
 Octapole moment (field-independent basis, Debye-Ang**2):
  XXX=             39.8998  YYY=             23.9943  ZZZ=              0.5300  XYY=             20.4038
  XXY=             32.9287  XXZ=              0.5719  XZZ=             10.4875  YZZ=             11.8866
  YYZ=              0.1513  XYZ=              3.6984
 Hexadecapole moment (field-independent basis, Debye-Ang**3):
 XXXX=          -5852.4585 YYYY=          -1716.1512 ZZZZ=           -144.0955 XXXY=            127.5405
 XXXZ=             -0.0349 YYYX=             63.7180 YYYZ=             -1.4329 ZZZX=              1.2562
 ZZZY=              0.5353 XXYY=          -1260.5527 XXZZ=          -1276.1495 YYZZ=           -362.0691
 XXYZ=            -12.2217 YYXZ=             -0.8196 ZZXY=             30.1418
 N-N= 1.291438530065D+03 E-N=-4.403606996613D+03  KE= 7.801258186257D+02
 Leave Link  601 at Wed Jan 22 11:31:32 2025, MaxMem= 25501368320 cpu:               5.7 elap:               0.3
 (Enter /share/Apps/gaussian/g16/l9999.exe)
 Electronic transition elements 
                 1             2             3             4             5 
      1  -0.782620D+03 -0.782598D+03 -0.782562D+03 -0.782550D+03 -0.782548D+03
      2  -0.156680D+00 -0.329632D+01  0.247296D+00 -0.130818D+00 -0.533201D+00
      3  -0.113262D-01 -0.260670D+00 -0.195471D+00  0.148342D+00  0.112435D+01
      4  -0.906218D-02  0.856860D-02  0.281035D-02 -0.176362D-01 -0.521841D-02
      5   0.167825D-01  0.427547D+00 -0.438239D-01  0.231224D-01  0.900266D-01
      6   0.956896D-03  0.261463D-01  0.362972D-01 -0.254619D-01 -0.204616D+00
      7  -0.174328D-02 -0.158416D-02 -0.530167D-03  0.315218D-02  0.382639D-03
      8  -0.890907D+00  0.280855D-01 -0.582681D-04  0.103045D-01 -0.505723D-02
      9  -0.443818D+00  0.441732D-01 -0.782119D-02 -0.585960D-02  0.348952D-01
     10   0.278576D-01  0.283430D+00 -0.534237D+00  0.478298D+00  0.820273D+00
     11   0.687448D-01  0.123302D+01  0.391187D+00  0.402249D+00  0.920785D+00
     12  -0.191946D-01 -0.571788D+00 -0.758439D-01  0.323439D-01 -0.108539D+00
     13   0.221837D-02 -0.169066D-01 -0.539506D-02 -0.836098D-03  0.169907D-01
     14   0.306239D-02  0.566381D-02  0.783112D-02  0.399454D+00  0.621641D+00
     15   0.554387D-03 -0.102944D-01  0.343058D-03  0.123948D-01 -0.243510D-01
     16  -0.704289D-01  0.272632D-01  0.937641D-03  0.562153D-03  0.654619D-02
                 6             7             8             9            10 
      1  -0.782542D+03 -0.782532D+03 -0.782518D+03 -0.782512D+03 -0.782508D+03
      2  -0.658592D+00  0.215549D+00 -0.679368D+00 -0.434053D-01 -0.604377D+00
      3  -0.594621D+00 -0.222006D+00 -0.856007D+00 -0.652614D-01  0.109291D+01
      4   0.187233D-01  0.334923D-01 -0.808101D-01  0.620263D-02 -0.485836D-02
      5   0.126737D+00 -0.390404D-01  0.139256D+00  0.920173D-02  0.138591D+00
      6   0.110902D+00  0.388785D-01  0.186779D+00  0.143691D-01 -0.240684D+00
      7  -0.401358D-02 -0.781583D-02  0.181178D-01 -0.587104D-02  0.221028D-02
      8   0.387218D-02  0.465823D-02  0.260621D-02 -0.114297D+00  0.780054D-02
      9   0.120933D-01  0.551421D-01 -0.171288D+00  0.214583D-01  0.296020D-01
     10  -0.108275D+01 -0.109722D+01  0.221971D+01  0.589574D-01  0.515510D+00
     11   0.185400D+00  0.183205D+01  0.123205D+01  0.112984D+00 -0.180290D+01
     12   0.419372D-01  0.201422D+00 -0.309091D-01  0.818377D-02 -0.289052D+00
     13  -0.668891D-02  0.148906D-01 -0.601856D-02  0.380085D-02 -0.480018D-02
     14  -0.529393D+00 -0.736868D+00  0.168443D+01  0.447963D-01  0.122996D+01
     15  -0.880240D-02 -0.357112D-01  0.134075D+00  0.328472D-01 -0.385887D-01
     16   0.273124D-02 -0.214282D-02  0.102342D-01 -0.395447D-01  0.652142D-02
                11            12            13            14            15 
      1  -0.782506D+03 -0.782503D+03 -0.782494D+03 -0.782492D+03 -0.782490D+03
      2  -0.661762D-01  0.594703D+00 -0.292592D+00 -0.256628D+00  0.121632D+00
      3   0.343934D+00 -0.118024D+01 -0.329853D+00 -0.662838D+00 -0.278798D-01
      4  -0.224077D-01  0.153906D-01  0.150484D-01  0.704573D-02  0.327922D-01
      5   0.172058D-01 -0.137097D+00  0.609028D-01  0.618791D-01 -0.281344D-01
      6  -0.759280D-01  0.259511D+00  0.747491D-01  0.155724D+00  0.657616D-02
      7   0.135468D-03 -0.324471D-02 -0.489886D-02 -0.134212D-02 -0.115370D-01
      8  -0.975555D-01 -0.214306D-01 -0.707045D-01  0.304908D-01 -0.609467D+00
      9  -0.367862D-01 -0.548892D-02 -0.188784D-01  0.879644D-02 -0.300815D+00
     10   0.109449D-01  0.821386D-01  0.100607D+00 -0.451202D+00 -0.699610D-01
     11  -0.701118D+00  0.165575D+01  0.120180D+01 -0.534811D+00 -0.360176D+00
     12  -0.396548D-01 -0.119805D+00 -0.235350D+00  0.505323D+00  0.910183D-01
     13  -0.403250D-02 -0.375442D-01 -0.340693D-01  0.195008D-02 -0.516464D-03
     14   0.334764D+00 -0.175436D+01 -0.577341D+00 -0.899543D+00 -0.340929D-01
     15   0.160328D-01  0.258339D-01 -0.333316D-02  0.152654D-01 -0.670047D-02
     16  -0.887968D-02  0.280005D-02 -0.433301D-03 -0.254969D-02 -0.912936D-01
                16            17            18            19            20 
      1  -0.782478D+03 -0.782477D+03 -0.782475D+03 -0.782473D+03 -0.782471D+03
      2  -0.164345D+00 -0.140417D+01  0.110464D+01  0.103360D+00 -0.583061D-01
      3  -0.268348D-01 -0.373323D+00  0.200254D+00  0.250505D+00 -0.148537D+01
      4   0.115148D+00 -0.555744D-02 -0.292285D-01  0.109998D+00  0.324146D-01
      5   0.413195D-01  0.355069D+00 -0.282567D+00 -0.260472D-01  0.142372D-01
      6   0.665016D-02  0.974456D-01 -0.483669D-01 -0.641271D-01  0.381972D+00
      7  -0.224160D-01  0.762663D-03  0.794616D-02 -0.363530D-01 -0.951426D-02
      8  -0.515003D-01  0.208507D-03  0.150613D-01 -0.194236D+00 -0.157713D-01
      9  -0.443320D+00  0.978094D-02 -0.698460D-01 -0.236317D-01 -0.471373D-01
     10  -0.199149D+00 -0.124338D+01  0.199420D+01  0.306102D+00 -0.159747D+01
     11   0.433478D+00  0.374910D+01 -0.174198D+01  0.483039D+00 -0.436587D+01
     12   0.671428D-01  0.690543D+00 -0.726009D+00 -0.220734D+00  0.143973D+01
     13   0.408329D-02  0.998856D-02 -0.481427D-02  0.643150D-02 -0.277878D-01
     14  -0.952795D-01 -0.190346D+00  0.128594D+01  0.196754D+00 -0.127794D+01
     15   0.365508D+00 -0.142108D-01  0.854251D-01 -0.499404D-01  0.361039D-01
     16  -0.373134D-01 -0.714130D-02  0.167859D-02 -0.464327D-01 -0.267918D-01
 Unable to Open any file for archive entry.
 1\1\GINC-SOL-E612\SP\RCAM-B3LYP TD-FC\6-311G(d,p)\C16H15N3\CRF524\22-J
 an-2025\0\\#p td(nstates=20, singlets) cam-b3lyp/6-311g(d,p) scrf=(sol
 vent=acetonitrile)\\h-pai-me_anti-trans_tddft\\0,1\N,0,0.674285,-0.657
 106,0.010741\N,0,1.347561,0.401252,0.006435\C,0,-0.690188,-0.508039,0.
 008702\C,0,-1.530646,0.667255,-0.008067\C,0,-1.525304,-1.618245,0.0234
 74\C,0,-2.854059,0.186787,-0.002757\C,0,-1.311415,2.046734,-0.027827\C
 ,0,-3.956303,1.033183,-0.015983\C,0,-2.405227,2.89589,-0.041225\H,0,-0
 .302403,2.43142,-0.032282\C,0,-3.712921,2.396359,-0.035218\H,0,-4.9675
 42,0.646381,-0.011549\H,0,-2.248062,3.967794,-0.056564\H,0,-4.548517,3
 .085621,-0.045879\C,0,2.754144,0.207445,-0.000391\C,0,3.527118,1.36181
 1,0.096259\C,0,3.384202,-1.03442,-0.105343\C,0,4.912258,1.282412,0.096
 925\H,0,3.022262,2.317145,0.172762\C,0,4.766602,-1.108703,-0.106532\H,
 0,2.778813,-1.926403,-0.186839\C,0,5.536497,0.04662,-0.004274\H,0,5.50
 4075,2.186432,0.175202\H,0,5.251129,-2.074464,-0.189705\H,0,6.617769,-
 0.019083,-0.006321\N,0,-2.819527,-1.200868,0.016541\C,0,-4.005865,-2.0
 35495,0.027869\H,0,-4.607179,-1.827746,0.914255\H,0,-4.608393,-1.84979
 ,-0.862544\H,0,-3.716649,-3.082089,0.040555\C,0,-1.137609,-3.052156,0.
 044694\H,0,-1.522169,-3.580728,-0.830689\H,0,-0.05312,-3.127403,0.0472
 16\H,0,-1.523952,-3.55465,0.934527\\Version=ES64L-G16RevC.01\State=1-A
 \HF=-782.7304963\RMSD=9.866e-09\PG=C01 [X(C16H15N3)]\\@
 The archive entry for this job was punched.


 NEVER TEACH A PIG TO SING.
 IT WASTES YOUR TIME AND ANNOYS THE PIG.
     -- SEEN ON A GREETING CARD
 Job cpu time:       0 days  2 hours  2 minutes  3.8 seconds.
 Elapsed time:       0 days  0 hours  3 minutes 27.2 seconds.
 File lengths (MBytes):  RWF=   2144 Int=      0 D2E=      0 Chk=    140 Scr=      8
 Normal termination of Gaussian 16 at Wed Jan 22 11:31:32 2025.
