 Entering Gaussian System, Link 0=g16
 Initial command:
 /share/Apps/gaussian/g16/l1.exe "/share/ceph/scratch/crf524/12289147/Gau-1935603.inp" -scrdir="/share/ceph/scratch/crf524/12289147/"
 Entering Link 1 = /share/Apps/gaussian/g16/l1.exe PID=   1935604.
  
 Copyright (c) 1988-2019, Gaussian, Inc.  All Rights Reserved.
  
 This is part of the Gaussian(R) 16 program.  It is based on
 the Gaussian(R) 09 system (copyright 2009, Gaussian, Inc.),
 the Gaussian(R) 03 system (copyright 2003, Gaussian, Inc.),
 the Gaussian(R) 98 system (copyright 1998, Gaussian, Inc.),
 the Gaussian(R) 94 system (copyright 1995, Gaussian, Inc.),
 the Gaussian 92(TM) system (copyright 1992, Gaussian, Inc.),
 the Gaussian 90(TM) system (copyright 1990, Gaussian, Inc.),
 the Gaussian 88(TM) system (copyright 1988, Gaussian, Inc.),
 the Gaussian 86(TM) system (copyright 1986, Carnegie Mellon
 University), and the Gaussian 82(TM) system (copyright 1983,
 Carnegie Mellon University). Gaussian is a federally registered
 trademark of Gaussian, Inc.
  
 This software contains proprietary and confidential information,
 including trade secrets, belonging to Gaussian, Inc.
  
 This software is provided under written license and may be
 used, copied, transmitted, or stored only in accord with that
 written license.
  
 The following legend is applicable only to US Government
 contracts under FAR:
  
                    RESTRICTED RIGHTS LEGEND
  
 Use, reproduction and disclosure by the US Government is
 subject to restrictions as set forth in subparagraphs (a)
 and (c) of the Commercial Computer Software - Restricted
 Rights clause in FAR 52.227-19.
  
 Gaussian, Inc.
 340 Quinnipiac St., Bldg. 40, Wallingford CT 06492
  
  
 ---------------------------------------------------------------
 Warning -- This program may not be used in any manner that
 competes with the business of Gaussian, Inc. or will provide
 assistance to any competitor of Gaussian, Inc.  The licensee
 of this program is prohibited from giving any competitor of
 Gaussian, Inc. access to this program.  By using this program,
 the user acknowledges that Gaussian, Inc. is engaged in the
 business of creating and licensing software in the field of
 computational chemistry and represents and warrants to the
 licensee that it is not a competitor of Gaussian, Inc. and that
 it will not use this program in any manner prohibited above.
 ---------------------------------------------------------------
  

 Cite this work as:
 Gaussian 16, Revision C.01,
 M. J. Frisch, G. W. Trucks, H. B. Schlegel, G. E. Scuseria, 
 M. A. Robb, J. R. Cheeseman, G. Scalmani, V. Barone, 
 G. A. Petersson, H. Nakatsuji, X. Li, M. Caricato, A. V. Marenich, 
 J. Bloino, B. G. Janesko, R. Gomperts, B. Mennucci, H. P. Hratchian, 
 J. V. Ortiz, A. F. Izmaylov, J. L. Sonnenberg, D. Williams-Young, 
 F. Ding, F. Lipparini, F. Egidi, J. Goings, B. Peng, A. Petrone, 
 T. Henderson, D. Ranasinghe, V. G. Zakrzewski, J. Gao, N. Rega, 
 G. Zheng, W. Liang, M. Hada, M. Ehara, K. Toyota, R. Fukuda, 
 J. Hasegawa, M. Ishida, T. Nakajima, Y. Honda, O. Kitao, H. Nakai, 
 T. Vreven, K. Throssell, J. A. Montgomery, Jr., J. E. Peralta, 
 F. Ogliaro, M. J. Bearpark, J. J. Heyd, E. N. Brothers, K. N. Kudin, 
 V. N. Staroverov, T. A. Keith, R. Kobayashi, J. Normand, 
 K. Raghavachari, A. P. Rendell, J. C. Burant, S. S. Iyengar, 
 J. Tomasi, M. Cossi, J. M. Millam, M. Klene, C. Adamo, R. Cammi, 
 J. W. Ochterski, R. L. Martin, K. Morokuma, O. Farkas, 
 J. B. Foresman, and D. J. Fox, Gaussian, Inc., Wallingford CT, 2019.
 
 ******************************************
 Gaussian 16:  ES64L-G16RevC.01  3-Jul-2019
                13-Feb-2025 
 ******************************************
 %nprocshared=36
 Will use up to   36 processors via shared memory.
 %mem=190GB
 %chk=anti-cis.chk
 ----------------------------------------------------------------------
 #p td(nstates=20, singlets) cam-b3lyp/6-311g(d,p) scrf=(solvent=aceton
 itrile)
 ----------------------------------------------------------------------
 1/38=1,172=1/1;
 2/12=2,17=6,18=5,40=1/2;
 3/5=4,6=6,7=101,11=9,25=1,30=1,70=2201,72=2,74=-40/1,2,3,8;
 4//1;
 5/5=2,38=5,53=2/2;
 8/6=1,10=2,108=20/1;
 9/41=20,42=1,48=1,70=2/14;
 6/7=2,8=2,9=2,10=2/1;
 99/5=1,9=1/99;
 Leave Link    1 at Thu Feb 13 13:28:13 2025, MaxMem= 25501368320 cpu:               3.7 elap:               0.1
 (Enter /share/Apps/gaussian/g16/l101.exe)
 --------------------------
 nof2-pai-me_anti-cis_tddft
 --------------------------
 Symbolic Z-matrix:
 Charge =  0 Multiplicity = 1
 N                    -1.31472  -2.24966  -0.64441 
 N                    -0.10281  -2.49516  -0.82056 
 C                    -1.86859  -1.01572  -0.27299 
 C                    -1.55504   0.3651   -0.58003 
 C                    -3.0907   -1.0193    0.37874 
 C                    -2.61787   1.12439  -0.04534 
 C                    -0.55819   1.03515  -1.29852 
 C                    -2.69096   2.50844  -0.17137 
 C                    -0.62926   2.40984  -1.43354 
 H                     0.26312   0.4922   -1.74425 
 C                    -1.68039   3.14339  -0.8694 
 H                    -3.51651   3.0687    0.24925 
 H                     0.14454   2.92982  -1.98555 
 H                    -1.70795   4.21966  -0.98901 
 C                     0.95418  -1.62039  -0.44937 
 C                     2.08558  -1.61467  -1.26146 
 C                     1.01075  -0.92911   0.76016 
 C                     3.20729  -0.87975  -0.93129 
 H                     2.07169  -2.2005   -2.17325 
 C                     2.14148  -0.22382   1.12317 
 H                     0.16976  -0.9596    1.44069 
 C                     3.2633   -0.14764   0.27229 
 H                     4.05312  -0.8937   -1.60284 
 H                     2.1498    0.27698   2.0802 
 N                    -3.51856   0.26496   0.55409 
 C                    -4.73636   0.69421   1.21356 
 H                    -4.51105   1.47089   1.94511 
 H                    -5.45458   1.08547   0.49008 
 H                    -5.18549  -0.14705   1.73377 
 C                    -3.86211  -2.1981    0.85166 
 H                    -4.90015  -2.15509   0.51555 
 H                    -3.39891  -3.09936   0.45577 
 H                    -3.86659  -2.2676    1.94266 
 C                     4.46768   1.17954   1.93169 
 H                     4.48449   0.42074   2.72433 
 H                     5.3858    1.75876   1.99495 
 H                     3.63485   1.85854   2.12955 
 N                     4.36719   0.59807   0.60719 
 C                     5.57129   0.49855  -0.19445 
 H                     6.31674   1.18499   0.19988 
 H                     5.99788  -0.51254  -0.18961 
 H                     5.37929   0.78058  -1.23248 
 
 ITRead=  0  0  0  0  0  0  0  0  0  0  0  0  0  0  0  0  0  0  0  0
 ITRead=  0  0  0  0  0  0  0  0  0  0  0  0  0  0  0  0  0  0  0  0
 ITRead=  0  0
 MicOpt= -1 -1 -1 -1 -1 -1 -1 -1 -1 -1 -1 -1 -1 -1 -1 -1 -1 -1 -1 -1
 MicOpt= -1 -1 -1 -1 -1 -1 -1 -1 -1 -1 -1 -1 -1 -1 -1 -1 -1 -1 -1 -1
 MicOpt= -1 -1
 NAtoms=     42 NQM=       42 NQMF=       0 NMMI=      0 NMMIF=      0
                NMic=       0 NMicF=      0.
                    Isotopes and Nuclear Properties:
 (Nuclear quadrupole moments (NQMom) in fm**2, nuclear magnetic moments (NMagM)
  in nuclear magnetons)

  Atom         1           2           3           4           5           6           7           8           9          10
 IAtWgt=          14          14          12          12          12          12          12          12          12           1
 AtmWgt=  14.0030740  14.0030740  12.0000000  12.0000000  12.0000000  12.0000000  12.0000000  12.0000000  12.0000000   1.0078250
 NucSpn=           2           2           0           0           0           0           0           0           0           1
 AtZEff=  -0.0000000  -0.0000000  -0.0000000  -0.0000000  -0.0000000  -0.0000000  -0.0000000  -0.0000000  -0.0000000  -0.0000000
 NQMom=    2.0440000   2.0440000   0.0000000   0.0000000   0.0000000   0.0000000   0.0000000   0.0000000   0.0000000   0.0000000
 NMagM=    0.4037610   0.4037610   0.0000000   0.0000000   0.0000000   0.0000000   0.0000000   0.0000000   0.0000000   2.7928460
 AtZNuc=   7.0000000   7.0000000   6.0000000   6.0000000   6.0000000   6.0000000   6.0000000   6.0000000   6.0000000   1.0000000

  Atom        11          12          13          14          15          16          17          18          19          20
 IAtWgt=          12           1           1           1          12          12          12          12           1          12
 AtmWgt=  12.0000000   1.0078250   1.0078250   1.0078250  12.0000000  12.0000000  12.0000000  12.0000000   1.0078250  12.0000000
 NucSpn=           0           1           1           1           0           0           0           0           1           0
 AtZEff=  -0.0000000  -0.0000000  -0.0000000  -0.0000000  -0.0000000  -0.0000000  -0.0000000  -0.0000000  -0.0000000  -0.0000000
 NQMom=    0.0000000   0.0000000   0.0000000   0.0000000   0.0000000   0.0000000   0.0000000   0.0000000   0.0000000   0.0000000
 NMagM=    0.0000000   2.7928460   2.7928460   2.7928460   0.0000000   0.0000000   0.0000000   0.0000000   2.7928460   0.0000000
 AtZNuc=   6.0000000   1.0000000   1.0000000   1.0000000   6.0000000   6.0000000   6.0000000   6.0000000   1.0000000   6.0000000

  Atom        21          22          23          24          25          26          27          28          29          30
 IAtWgt=           1          12           1           1          14          12           1           1           1          12
 AtmWgt=   1.0078250  12.0000000   1.0078250   1.0078250  14.0030740  12.0000000   1.0078250   1.0078250   1.0078250  12.0000000
 NucSpn=           1           0           1           1           2           0           1           1           1           0
 AtZEff=  -0.0000000  -0.0000000  -0.0000000  -0.0000000  -0.0000000  -0.0000000  -0.0000000  -0.0000000  -0.0000000  -0.0000000
 NQMom=    0.0000000   0.0000000   0.0000000   0.0000000   2.0440000   0.0000000   0.0000000   0.0000000   0.0000000   0.0000000
 NMagM=    2.7928460   0.0000000   2.7928460   2.7928460   0.4037610   0.0000000   2.7928460   2.7928460   2.7928460   0.0000000
 AtZNuc=   1.0000000   6.0000000   1.0000000   1.0000000   7.0000000   6.0000000   1.0000000   1.0000000   1.0000000   6.0000000

  Atom        31          32          33          34          35          36          37          38          39          40
 IAtWgt=           1           1           1          12           1           1           1          14          12           1
 AtmWgt=   1.0078250   1.0078250   1.0078250  12.0000000   1.0078250   1.0078250   1.0078250  14.0030740  12.0000000   1.0078250
 NucSpn=           1           1           1           0           1           1           1           2           0           1
 AtZEff=  -0.0000000  -0.0000000  -0.0000000  -0.0000000  -0.0000000  -0.0000000  -0.0000000  -0.0000000  -0.0000000  -0.0000000
 NQMom=    0.0000000   0.0000000   0.0000000   0.0000000   0.0000000   0.0000000   0.0000000   2.0440000   0.0000000   0.0000000
 NMagM=    2.7928460   2.7928460   2.7928460   0.0000000   2.7928460   2.7928460   2.7928460   0.4037610   0.0000000   2.7928460
 AtZNuc=   1.0000000   1.0000000   1.0000000   6.0000000   1.0000000   1.0000000   1.0000000   7.0000000   6.0000000   1.0000000

  Atom        41          42
 IAtWgt=           1           1
 AtmWgt=   1.0078250   1.0078250
 NucSpn=           1           1
 AtZEff=  -0.0000000  -0.0000000
 NQMom=    0.0000000   0.0000000
 NMagM=    2.7928460   2.7928460
 AtZNuc=   1.0000000   1.0000000
 Leave Link  101 at Thu Feb 13 13:28:13 2025, MaxMem= 25501368320 cpu:               3.3 elap:               0.1
 (Enter /share/Apps/gaussian/g16/l202.exe)
                          Input orientation:                          
 ---------------------------------------------------------------------
 Center     Atomic      Atomic             Coordinates (Angstroms)
 Number     Number       Type             X           Y           Z
 ---------------------------------------------------------------------
      1          7           0       -1.314716   -2.249658   -0.644413
      2          7           0       -0.102810   -2.495160   -0.820557
      3          6           0       -1.868591   -1.015718   -0.272993
      4          6           0       -1.555044    0.365103   -0.580030
      5          6           0       -3.090700   -1.019303    0.378741
      6          6           0       -2.617866    1.124391   -0.045342
      7          6           0       -0.558187    1.035149   -1.298521
      8          6           0       -2.690955    2.508440   -0.171369
      9          6           0       -0.629260    2.409836   -1.433543
     10          1           0        0.263118    0.492198   -1.744245
     11          6           0       -1.680387    3.143389   -0.869400
     12          1           0       -3.516509    3.068697    0.249249
     13          1           0        0.144541    2.929817   -1.985545
     14          1           0       -1.707949    4.219660   -0.989013
     15          6           0        0.954176   -1.620387   -0.449365
     16          6           0        2.085576   -1.614668   -1.261460
     17          6           0        1.010754   -0.929111    0.760161
     18          6           0        3.207286   -0.879748   -0.931288
     19          1           0        2.071686   -2.200500   -2.173254
     20          6           0        2.141475   -0.223816    1.123172
     21          1           0        0.169758   -0.959599    1.440691
     22          6           0        3.263296   -0.147642    0.272285
     23          1           0        4.053120   -0.893703   -1.602836
     24          1           0        2.149801    0.276981    2.080200
     25          7           0       -3.518563    0.264955    0.554093
     26          6           0       -4.736363    0.694206    1.213558
     27          1           0       -4.511054    1.470886    1.945109
     28          1           0       -5.454582    1.085466    0.490080
     29          1           0       -5.185491   -0.147054    1.733773
     30          6           0       -3.862110   -2.198097    0.851661
     31          1           0       -4.900153   -2.155087    0.515552
     32          1           0       -3.398912   -3.099356    0.455773
     33          1           0       -3.866586   -2.267597    1.942660
     34          6           0        4.467684    1.179539    1.931689
     35          1           0        4.484493    0.420736    2.724325
     36          1           0        5.385802    1.758760    1.994951
     37          1           0        3.634849    1.858539    2.129552
     38          7           0        4.367193    0.598073    0.607186
     39          6           0        5.571289    0.498546   -0.194452
     40          1           0        6.316736    1.184991    0.199877
     41          1           0        5.997875   -0.512542   -0.189607
     42          1           0        5.379294    0.780579   -1.232477
 ---------------------------------------------------------------------
                    Distance matrix (angstroms):
                    1          2          3          4          5
     1  N    0.000000
     2  N    1.249005   0.000000
     3  C    1.402618   2.367817   0.000000
     4  C    2.626571   3.216822   1.448879   0.000000
     5  C    2.390552   3.541745   1.385034   2.279048   0.000000
     6  C    3.666237   4.475222   2.278882   1.411382   2.235809
     7  C    3.433679   3.591504   2.641008   1.399612   3.667097
     8  C    4.975671   5.670622   3.620262   2.459917   3.592685
     9  C    4.775297   4.971105   3.823250   2.401352   4.593697
    10  H    3.349174   3.148239   2.997095   2.162698   4.247329
    11  C    5.410110   5.855286   4.205864   2.796126   4.568900
    12  H    5.825069   6.614706   4.435179   3.441579   4.112156
    13  H    5.545722   5.554166   4.748977   3.382576   5.626027
    14  H    6.490413   6.906059   5.286556   3.879208   5.588335
    15  C    2.362604   1.421348   2.892187   3.202410   4.172300
    16  C    3.513680   2.399728   4.119617   4.199756   5.462468
    17  C    3.020676   2.488213   3.060316   3.170871   4.120138
    18  C    4.733651   3.684909   5.120192   4.934858   6.434305
    19  H    3.715843   2.577799   4.532161   4.719518   5.878617
    20  C    4.378773   3.738168   4.319377   4.112417   5.344402
    21  H    2.866282   2.746904   2.663593   2.968685   3.429561
    22  C    5.120254   4.246859   5.233273   4.919934   6.414389
    23  H    5.618795   4.521988   6.070423   5.837999   7.414620
    24  H    5.080384   4.601458   4.832811   4.561849   5.660227
    25  N    3.551991   4.601659   2.246464   2.269729   1.364967
    26  C    4.881194   5.981596   3.654831   3.666887   2.518182
    27  H    5.546589   6.543015   4.252739   4.041915   3.266796
    28  H    5.435864   6.571158   4.225705   4.107366   3.167079
    29  H    5.005958   6.154011   3.972847   4.335451   2.642930
    30  C    2.954676   4.125154   2.576235   3.733937   1.486029
    31  H    3.769592   4.991526   3.333217   4.329135   2.140758
    32  H    2.505248   3.585855   2.685988   4.058967   2.104174
    33  H    3.633911   4.674737   3.235476   4.317210   2.146178
    34  C    7.199434   6.478247   7.058906   6.576115   8.023448
    35  H    7.218741   6.489375   7.170006   6.884611   8.059716
    36  H    8.242002   7.493182   8.091200   7.533137   9.065366
    37  H    7.005024   6.451971   6.657434   6.042117   7.521989
    38  N    6.477666   5.620273   6.501080   6.044555   7.634675
    39  C    7.427796   6.445904   7.592824   7.138004   8.812631
    40  H    8.411225   7.469630   8.489187   7.952697   9.663889
    41  H    7.529835   6.445714   7.882983   7.613756   9.120418
    42  H    7.371426   6.399501   7.528554   6.977346   8.807746
                    6          7          8          9         10
     6  C    0.000000
     7  C    2.412613   0.000000
     8  C    1.391696   2.826616   0.000000
     9  C    2.744818   1.383129   2.419378   0.000000
    10  H    3.403823   1.080744   3.907137   2.137805   0.000000
    11  C    2.373666   2.426552   1.382626   1.400438   3.401673
    12  H    2.162098   3.909294   1.082750   3.406185   4.989784
    13  H    3.828164   2.134384   3.392467   1.083446   2.452401
    14  H    3.361421   3.399832   2.136145   2.153286   4.283626
    15  C    4.522889   3.171779   5.514660   4.440560   2.572410
    16  C    5.577074   3.743312   6.403403   4.857631   2.827246
    17  C    4.246480   3.249318   5.136843   4.318628   2.975085
    18  C    6.223654   4.240339   6.844453   5.078652   3.348322
    19  H    6.129829   4.260377   6.990308   5.394208   3.271940
    20  C    5.082757   3.838980   5.700302   4.598901   3.501854
    21  H    3.784462   3.465863   4.775951   4.500305   3.501464
    22  C    6.025531   4.297692   6.534884   4.960094   3.671084
    23  H    7.141467   5.007717   7.688057   5.732950   4.037924
    24  H    5.288353   4.395881   5.786354   4.961717   4.269926
    25  N    1.381741   3.576200   2.498891   4.110874   4.431152
    26  C    2.501583   4.887120   3.064827   5.178690   5.812419
    27  H    2.768775   5.131877   2.978046   5.231180   6.112437
    28  H    2.887066   5.213090   3.178050   5.360785   6.167355
    29  H    3.372613   5.657239   4.111438   6.109731   6.495583
    30  C    3.659465   5.098340   4.956782   6.075074   5.567218
    31  H    4.034651   5.685168   5.205853   6.548131   6.226891
    32  H    4.324487   5.314264   5.686993   6.449161   5.581201
    33  H    4.125171   5.688487   5.353668   6.614938   6.185806
    34  C    7.356406   5.976160   7.578585   6.230350   5.627016
    35  H    7.655697   6.479924   8.014400   6.884392   6.147620
    36  H    8.283956   6.833855   8.395771   6.954095   6.467431
    37  H    6.660749   5.478248   6.762574   5.584102   5.314298
    38  N    7.035187   5.299257   7.353442   5.693119   4.731159
    39  C    8.214388   6.251191   8.503228   6.605693   5.529790
    40  H    8.938172   7.037913   9.111961   7.239832   6.395769
    41  H    8.771052   6.826931   9.199045   7.348917   6.026097
    42  H    8.092099   5.943303   8.321080   6.228774   5.149789
                   11         12         13         14         15
    11  C    0.000000
    12  H    2.151348   0.000000
    13  H    2.149827   4.291489   0.000000
    14  H    1.083248   2.475661   2.467487   0.000000
    15  C    5.459937   6.516333   4.870289   6.440829   0.000000
    16  C    6.080731   7.456508   4.994423   6.964513   1.392694
    17  C    5.146160   6.061321   4.814619   6.079539   1.394280
    18  C    6.330783   7.886273   5.000465   7.082855   2.420186
    19  H    6.658471   8.053625   5.483546   7.543641   2.134749
    20  C    5.469464   6.604329   4.857702   6.246909   2.415153
    21  H    5.059058   5.588852   5.183366   6.021127   2.150410
    22  C    6.047672   7.504074   4.929014   6.736281   2.832277
    23  H    7.050471   8.742432   5.481128   7.727430   3.385560
    24  H    5.620211   6.576711   5.252513   6.312450   3.380566
    25  N    3.700082   2.820267   5.193225   4.615105   4.956494
    26  C    4.435786   2.838335   6.249435   5.143096   6.364345
    27  H    4.327979   2.533389   6.265228   4.901248   6.719986
    28  H    4.508634   2.783403   6.393788   5.103739   7.019713
    29  H    5.467109   3.915401   7.190946   6.210882   6.680742
    30  C    6.021083   5.312387   7.099190   7.015418   5.022253
    31  H    6.352860   5.410481   7.586875   7.286376   5.957360
    32  H    6.609181   6.172630   7.407228   7.649494   4.685723
    33  H    6.478111   5.609477   7.650689   7.439014   5.420370
    34  C    7.035736   8.375372   6.090793   7.477384   5.084658
    35  H    7.637633   8.783720   6.878484   8.158863   5.167362
    36  H    7.749370   9.165945   6.684799   8.079689   6.085444
    37  H    6.236689   7.492793   5.501264   6.621618   5.093108
    38  N    6.725486   8.269514   5.476319   7.250593   4.205538
    39  C    7.748390   9.454661   6.210369   8.213728   5.086511
    40  H    8.302569  10.012167   6.776170   8.661307   6.086765
    41  H    8.531334  10.175528   7.024012   9.078134   5.170464
    42  H    7.453442   9.304102   5.708675   7.881343   5.095054
                   16         17         18         19         20
    16  C    0.000000
    17  C    2.390017   0.000000
    18  C    1.381070   2.772758   0.000000
    19  H    1.083864   3.368520   2.139265   0.000000
    20  C    2.761171   1.381213   2.405620   3.844291   0.000000
    21  H    3.376551   1.082278   3.854768   4.268227   2.128347
    22  C    2.427254   2.433652   1.409860   3.408052   1.410069
    23  H    2.123101   3.852402   1.080096   2.441142   3.396212
    24  H    3.840463   2.120045   3.394902   4.922996   1.080171
    25  N    6.183493   4.688600   6.982388   6.690872   5.709534
    26  C    7.615475   5.989164   8.377306   8.136298   6.939423
    27  H    7.957277   6.136322   8.565741   8.589089   6.914025
    28  H    8.198329   6.777318   8.995016   8.633402   7.734023
    29  H    7.999608   6.320837   8.836181   8.494005   7.352765
    30  C    6.338820   5.036219   7.409002   6.660334   6.325704
    31  H    7.228432   6.041661   8.333691   7.472502   7.326905
    32  H    5.935722   4.924202   7.105804   6.135729   6.277742
    33  H    6.791239   5.194063   7.760500   7.225533   6.398859
    34  C    4.866028   4.215359   3.745117   5.832326   2.834493
    35  H    5.077810   4.212706   4.084853   6.056302   2.910133
    36  H    5.733735   5.281136   4.502281   6.635739   3.900803
    37  H    5.095329   4.065968   4.129136   6.118285   2.753029
    38  N    3.686982   3.690715   2.428218   4.564232   2.428078
    39  C    4.213594   4.873189   2.833925   4.842285   3.744538
    40  H    5.279802   5.739058   3.900174   5.925686   4.502223
    41  H    4.203526   5.093816   2.910725   4.711583   4.083941
    42  H    4.072668   5.096841   2.750458   4.551062   4.128119
                   21         22         23         24         25
    21  H    0.000000
    22  C    3.405059   0.000000
    23  H    4.934359   2.167143   0.000000
    24  H    2.420469   2.165348   4.307886   0.000000
    25  N    3.986139   6.800240   7.957714   5.870221   0.000000
    26  C    5.182343   8.098719   9.365284   6.953014   1.449892
    27  H    5.298273   8.115324   9.566832   6.768356   2.091467
    28  H    6.059633   8.807348   9.934476   7.810811   2.103689
    29  H    5.424465   8.574261   9.851009   7.355700   2.083278
    30  C    4.258731   7.437167   8.389092   6.616524   2.504635
    31  H    5.290470   8.410167   9.286536   7.620035   2.786912
    32  H    4.275983   7.289122   8.039624   6.695269   3.367873
    33  H    4.272576   7.623620   8.785207   6.533813   2.909134
    34  C    4.825884   2.442454   4.118624   2.491836   8.155635
    35  H    4.708501   2.797655   4.542924   2.426180   8.293557
    36  H    5.907943   3.332713   4.664298   3.560146   9.143043
    37  H    4.519213   2.759031   4.656233   2.170053   7.496191
    38  N    4.554068   1.373622   2.684816   2.681361   7.892967
    39  C    5.828929   2.441769   2.495344   4.114573   9.123612
    40  H    6.627535   3.332364   3.562962   4.660842   9.884586
    41  H    6.068334   2.797216   2.434044   4.536854   9.577065
    42  H    6.108462   2.757417   2.167746   4.653715   9.090080
                   26         27         28         29         30
    26  C    0.000000
    27  H    1.090487   0.000000
    28  H    1.091945   1.776486   0.000000
    29  H    1.086305   1.765576   1.771521   0.000000
    30  C    3.043141   3.883065   3.667219   2.595426   0.000000
    31  H    2.938113   3.916977   3.287738   2.365941   1.091949
    32  H    4.093180   4.933771   4.662584   3.679842   1.087910
    33  H    3.171810   3.793626   3.984313   2.505962   1.093220
    34  C    9.244768   8.983474  10.026886   9.745912   9.053196
    35  H    9.347801   9.090097  10.208767   9.737154   8.946001
    36  H   10.207942   9.901167  10.965030  10.744886  10.123621
    37  H    8.501289   8.157207   9.268401   9.054139   8.619379
    38  N    9.124235   9.020815   9.834558   9.647704   8.694812
    39  C   10.405213  10.352623  11.062680  10.947290   9.866877
    40  H   11.110329  10.971263  11.775315  11.680257  10.746116
    41  H   10.892611  10.905438  11.583366  11.353442  10.057069
    42  H   10.407548  10.411175  10.974198  11.012440   9.930745
                   31         32         33         34         35
    31  H    0.000000
    32  H    1.774526   0.000000
    33  H    1.765660   1.766741   0.000000
    34  C   10.043981   9.075825   9.019031   0.000000
    35  H    9.979235   8.926671   8.807875   1.097423   0.000000
    36  H   11.104400  10.155863  10.090638   1.087400   1.770495
    37  H    9.568722   8.766758   8.563379   1.092614   1.772830
    38  N    9.668091   8.602691   8.819902   1.450003   2.127789
    39  C   10.825755   9.686702  10.064407   2.490416   3.115516
    40  H   11.707876  10.621437  10.893012   2.533416   3.211548
    41  H   11.043651   9.767688  10.243748   3.115208   3.413551
    42  H   10.832395   9.744793  10.240077   3.316949   4.072645
                   36         37         38         39         40
    36  H    0.000000
    37  H    1.758951   0.000000
    38  N    2.076211   2.107771   0.000000
    39  C    2.532988   3.316681   1.449957   0.000000
    40  H    2.101937   3.371918   2.076317   1.087379   0.000000
    41  H    3.210255   4.072397   2.127785   1.097405   1.770590
    42  H    3.372413   3.938061   2.107609   1.092658   1.758973
                   41         42
    41  H    0.000000
    42  H    1.772677   0.000000
 Stoichiometry    C18H20N4
 Framework group  C1[X(C18H20N4)]
 Deg. of freedom   120
 Full point group                 C1      NOp   1
 Largest Abelian subgroup         C1      NOp   1
 Largest concise Abelian subgroup C1      NOp   1
                         Standard orientation:                         
 ---------------------------------------------------------------------
 Center     Atomic      Atomic             Coordinates (Angstroms)
 Number     Number       Type             X           Y           Z
 ---------------------------------------------------------------------
      1          7           0       -1.314716   -2.249658   -0.644413
      2          7           0       -0.102810   -2.495160   -0.820557
      3          6           0       -1.868591   -1.015718   -0.272993
      4          6           0       -1.555044    0.365103   -0.580030
      5          6           0       -3.090700   -1.019303    0.378741
      6          6           0       -2.617866    1.124391   -0.045342
      7          6           0       -0.558187    1.035149   -1.298521
      8          6           0       -2.690955    2.508440   -0.171369
      9          6           0       -0.629260    2.409836   -1.433543
     10          1           0        0.263118    0.492198   -1.744245
     11          6           0       -1.680387    3.143389   -0.869400
     12          1           0       -3.516509    3.068697    0.249249
     13          1           0        0.144541    2.929817   -1.985545
     14          1           0       -1.707949    4.219660   -0.989013
     15          6           0        0.954176   -1.620387   -0.449365
     16          6           0        2.085576   -1.614668   -1.261460
     17          6           0        1.010754   -0.929111    0.760161
     18          6           0        3.207286   -0.879748   -0.931288
     19          1           0        2.071686   -2.200500   -2.173254
     20          6           0        2.141475   -0.223816    1.123172
     21          1           0        0.169758   -0.959599    1.440691
     22          6           0        3.263296   -0.147642    0.272285
     23          1           0        4.053120   -0.893703   -1.602836
     24          1           0        2.149801    0.276981    2.080200
     25          7           0       -3.518563    0.264955    0.554093
     26          6           0       -4.736363    0.694206    1.213558
     27          1           0       -4.511054    1.470886    1.945109
     28          1           0       -5.454582    1.085466    0.490080
     29          1           0       -5.185491   -0.147054    1.733773
     30          6           0       -3.862110   -2.198097    0.851661
     31          1           0       -4.900153   -2.155087    0.515552
     32          1           0       -3.398912   -3.099356    0.455773
     33          1           0       -3.866586   -2.267597    1.942660
     34          6           0        4.467684    1.179539    1.931689
     35          1           0        4.484493    0.420736    2.724325
     36          1           0        5.385802    1.758760    1.994951
     37          1           0        3.634849    1.858539    2.129552
     38          7           0        4.367193    0.598073    0.607186
     39          6           0        5.571289    0.498546   -0.194452
     40          1           0        6.316736    1.184991    0.199877
     41          1           0        5.997875   -0.512542   -0.189607
     42          1           0        5.379294    0.780579   -1.232477
 ---------------------------------------------------------------------
 Rotational constants (GHZ):           0.5122961           0.1739930           0.1501672
 Leave Link  202 at Thu Feb 13 13:28:13 2025, MaxMem= 25501368320 cpu:               0.2 elap:               0.0
 (Enter /share/Apps/gaussian/g16/l301.exe)
 Standard basis: 6-311G(d,p) (5D, 7F)
 Ernie: Thresh=  0.10000D-02 Tol=  0.10000D-05 Strict=F.
 There are   538 symmetry adapted cartesian basis functions of A   symmetry.
 There are   516 symmetry adapted basis functions of A   symmetry.
   516 basis functions,   864 primitive gaussians,   538 cartesian basis functions
    78 alpha electrons       78 beta electrons
       nuclear repulsion energy      1735.2658151286 Hartrees.
 IExCor=20419 DFT=T Ex+Corr=CAM-B3LYP ExCW=0 ScaHFX=  1.000000
 ScaDFX=  1.000000  1.000000  1.000000  0.810000 ScalE2=  1.000000  1.000000
 IRadAn=      5 IRanWt=     -1 IRanGd=            0 ICorTp=0 IEmpDi=  4
 HFx  wShort=  0.000000 wLong=  0.330000 cFull=  0.190000 cShort=  0.000000 cLong=  0.460000
 DFx  wShort=  0.000000 wLong=  0.330000 cFull=  0.190000 cShort=  0.000000 cLong=  0.460000
 NAtoms=   42 NActive=   42 NUniq=   42 SFac= 1.00D+00 NAtFMM=   60 NAOKFM=F Big=F
 Integral buffers will be    131072 words long.
 Raffenetti 1 integral format.
 Two-electron integral symmetry is turned on.
 ------------------------------------------------------------------------------
 Polarizable Continuum Model (PCM)
 =================================
 Model                : PCM.
 Atomic radii         : UFF (Universal Force Field).
 Polarization charges : Total charges.
 Charge compensation  : None.
 Solution method      : On-the-fly selection.
 Cavity type          : Scaled VdW (van der Waals Surface) (Alpha=1.100).
 Cavity algorithm     : GePol (No added spheres)
                        Default sphere list used, NSphG=   42.
                        Lebedev-Laikov grids with approx.  5.0 points / Ang**2.
                        Smoothing algorithm: York/Karplus (Gamma=1.0000).
                        Polarization charges: spherical gaussians, with
                                              point-specific exponents (IZeta= 3).
                        Self-potential: point-specific (ISelfS= 7).
                        Self-field    : sphere-specific E.n sum rule (ISelfD= 2).
 Solvent              : Acetonitrile, Eps=  35.688000 Eps(inf)=   1.806874
 ------------------------------------------------------------------------------
 GePol: Number of generator spheres                  =      42
 GePol: Total number of spheres                      =      42
 GePol: Number of exposed spheres                    =      42 (100.00%)
 GePol: Number of points                             =    2947
 GePol: Average weight of points                     =       0.13
 GePol: Minimum weight of points                     =   0.13D-11
 GePol: Maximum weight of points                     =    0.20577
 GePol: Number of points with low weight             =     196
 GePol: Fraction of low-weight points (<1% of avg)   =       6.65%
 GePol: Cavity surface area                          =    380.984 Ang**2
 GePol: Cavity volume                                =    423.490 Ang**3
 Leave Link  301 at Thu Feb 13 13:28:13 2025, MaxMem= 25501368320 cpu:               3.4 elap:               0.1
 (Enter /share/Apps/gaussian/g16/l302.exe)
 NPDir=0 NMtPBC=     1 NCelOv=     1 NCel=       1 NClECP=     1 NCelD=      1
         NCelK=      1 NCelE2=     1 NClLst=     1 CellRange=     0.0.
 One-electron integrals computed using PRISM.
 One-electron integral symmetry used in STVInt
 NBasis=   516 RedAO= T EigKep=  1.26D-04  NBF=   516
 NBsUse=   516 1.00D-06 EigRej= -1.00D+00 NBFU=   516
 Precomputing XC quadrature grid using
 IXCGrd= 4 IRadAn=           5 IRanWt=          -1 IRanGd=           0 AccXCQ= 0.00D+00.
 Generated NRdTot=       0 NPtTot=           0 NUsed=           0 NTot=          32
 NSgBfM=   537   537   537   537   537 MxSgAt=    42 MxSgA2=    42.
 Leave Link  302 at Thu Feb 13 13:28:14 2025, MaxMem= 25501368320 cpu:              15.7 elap:               0.5
 (Enter /share/Apps/gaussian/g16/l303.exe)
 DipDrv:  MaxL=1.
 Leave Link  303 at Thu Feb 13 13:28:14 2025, MaxMem= 25501368320 cpu:               2.0 elap:               0.1
 (Enter /share/Apps/gaussian/g16/l308.exe)
 Leave Link  308 at Thu Feb 13 13:28:14 2025, MaxMem= 25501368320 cpu:               2.4 elap:               0.1
 (Enter /share/Apps/gaussian/g16/l401.exe)
 ExpMin= 1.03D-01 ExpMax= 6.29D+03 ExpMxC= 9.49D+02 IAcc=3 IRadAn=         5 AccDes= 0.00D+00
 Harris functional with IExCor=20419 and IRadAn=       5 diagonalized for initial guess.
 HarFok:  IExCor=20419 AccDes= 0.00D+00 IRadAn=         5 IDoV= 1 UseB2=F ITyADJ=14
 ICtDFT=  3500011 ScaDFX=  1.000000  1.000000  1.000000  1.000000
 FoFCou: FMM=F IPFlag=           0 FMFlag=      100000 FMFlg1=           0
         NFxFlg=           0 DoJE=T BraDBF=F KetDBF=T FulRan=T
         wScrn=  0.000000 ICntrl=       500 IOpCl=  0 I1Cent=   200000004 NGrid=           0
         NMat0=    1 NMatS0=      1 NMatT0=    0 NMatD0=    1 NMtDS0=    0 NMtDT0=    0
 Petite list used in FoFCou.
 Harris En= -879.933029932433    
 JPrj=0 DoOrth=F DoCkMO=F.
 Leave Link  401 at Thu Feb 13 13:28:15 2025, MaxMem= 25501368320 cpu:              30.2 elap:               0.9
 (Enter /share/Apps/gaussian/g16/l502.exe)
 Integral symmetry usage will be decided dynamically.
 Closed shell SCF:
 Using DIIS extrapolation, IDIIS=  1040.
 NGot= 25501368320 LenX= 25500763696 LenY= 25500473714
 Requested convergence on RMS density matrix=1.00D-08 within 128 cycles.
 Requested convergence on MAX density matrix=1.00D-06.
 Requested convergence on             energy=1.00D-06.
 No special actions if energy rises.
 Fock matrices will be formed incrementally for  20 cycles.

 Cycle   1  Pass 1  IDiag  1:
 FoFJK:  IHMeth= 1 ICntrl=       0 DoSepK=T KAlg= 0 I1Cent=           0 FoldK=F
 IRaf=         1 NMat=       1 IRICut=       1 DoRegI=T DoRafI=F ISym2E= 0 IDoP0=0 IntGTp=1.
 FoFCou: FMM=F IPFlag=           0 FMFlag=      100000 FMFlg1=           0
         NFxFlg=           0 DoJE=T BraDBF=F KetDBF=F FulRan=T
         wScrn=  0.000000 ICntrl=       500 IOpCl=  0 I1Cent=           0 NGrid=           0
         NMat0=    1 NMatS0=      1 NMatT0=    0 NMatD0=    1 NMtDS0=    0 NMtDT0=    0
 Symmetry not used in FoFCou.
 Inv3:  Mode=1 IEnd=    26054427.
 Iteration    1 A*A^-1 deviation from unit magnitude is 2.89D-15 for   1733.
 Iteration    1 A*A^-1 deviation from orthogonality  is 2.13D-15 for   1918    252.
 Iteration    1 A^-1*A deviation from unit magnitude is 2.89D-15 for   1733.
 Iteration    1 A^-1*A deviation from orthogonality  is 2.73D-15 for   2706   2699.
 E= -916.332417019791    
 DIIS: error= 4.18D-02 at cycle   1 NSaved=   1.
 NSaved= 1 IEnMin= 1 EnMin= -916.332417019791     IErMin= 1 ErrMin= 4.18D-02
 ErrMax= 4.18D-02  0.00D+00 EMaxC= 1.00D-01 BMatC= 1.62D+00 BMatP= 1.62D+00
 IDIUse=3 WtCom= 5.82D-01 WtEn= 4.18D-01
 Coeff-Com:  0.100D+01
 Coeff-En:   0.100D+01
 Coeff:      0.100D+01
 Gap=     0.299 Goal=   None    Shift=    0.000
 GapD=    0.299 DampG=1.000 DampE=0.500 DampFc=0.5000 IDamp=-1.
 Damping current iteration by 5.00D-01
 RMSDP=1.95D-03 MaxDP=8.29D-02              OVMax= 1.38D-01

 Cycle   2  Pass 1  IDiag  1:
 RMSU=  9.46D-04    CP:  9.72D-01
 E= -916.471509238020     Delta-E=       -0.139092218228 Rises=F Damp=T
 DIIS: error= 2.01D-02 at cycle   2 NSaved=   2.
 NSaved= 2 IEnMin= 2 EnMin= -916.471509238020     IErMin= 2 ErrMin= 2.01D-02
 ErrMax= 2.01D-02  0.00D+00 EMaxC= 1.00D-01 BMatC= 3.31D-01 BMatP= 1.62D+00
 IDIUse=3 WtCom= 7.99D-01 WtEn= 2.01D-01
 Coeff-Com: -0.516D+00 0.152D+01
 Coeff-En:   0.000D+00 0.100D+01
 Coeff:     -0.413D+00 0.141D+01
 Gap=     0.283 Goal=   None    Shift=    0.000
 RMSDP=8.03D-04 MaxDP=4.47D-02 DE=-1.39D-01 OVMax= 1.40D-01

 Cycle   3  Pass 1  IDiag  1:
 RMSU=  7.67D-04    CP:  9.78D-01  7.55D-01
 E= -916.542338861010     Delta-E=       -0.070829622991 Rises=F Damp=F
 DIIS: error= 1.19D-02 at cycle   3 NSaved=   3.
 NSaved= 3 IEnMin= 3 EnMin= -916.542338861010     IErMin= 3 ErrMin= 1.19D-02
 ErrMax= 1.19D-02  0.00D+00 EMaxC= 1.00D-01 BMatC= 1.11D-01 BMatP= 3.31D-01
 IDIUse=3 WtCom= 8.81D-01 WtEn= 1.19D-01
 Coeff-Com: -0.349D+00 0.753D+00 0.596D+00
 Coeff-En:   0.000D+00 0.146D-01 0.985D+00
 Coeff:     -0.307D+00 0.665D+00 0.642D+00
 Gap=     0.230 Goal=   None    Shift=    0.000
 RMSDP=6.82D-04 MaxDP=4.05D-02 DE=-7.08D-02 OVMax= 6.53D-02

 Cycle   4  Pass 1  IDiag  1:
 RMSU=  1.93D-04    CP:  9.61D-01  1.34D+00  5.92D-01
 E= -916.631699463175     Delta-E=       -0.089360602164 Rises=F Damp=F
 DIIS: error= 3.19D-03 at cycle   4 NSaved=   4.
 NSaved= 4 IEnMin= 4 EnMin= -916.631699463175     IErMin= 4 ErrMin= 3.19D-03
 ErrMax= 3.19D-03  0.00D+00 EMaxC= 1.00D-01 BMatC= 5.81D-03 BMatP= 1.11D-01
 IDIUse=3 WtCom= 9.68D-01 WtEn= 3.19D-02
 Coeff-Com: -0.161D+00 0.348D+00 0.357D+00 0.456D+00
 Coeff-En:   0.000D+00 0.000D+00 0.000D+00 0.100D+01
 Coeff:     -0.156D+00 0.337D+00 0.346D+00 0.474D+00
 Gap=     0.211 Goal=   None    Shift=    0.000
 RMSDP=1.17D-04 MaxDP=9.18D-03 DE=-8.94D-02 OVMax= 1.57D-02

 Cycle   5  Pass 1  IDiag  1:
 RMSU=  8.75D-05    CP:  9.61D-01  1.32D+00  6.62D-01  7.39D-01
 E= -916.636486072736     Delta-E=       -0.004786609561 Rises=F Damp=F
 DIIS: error= 4.43D-04 at cycle   5 NSaved=   5.
 NSaved= 5 IEnMin= 5 EnMin= -916.636486072736     IErMin= 5 ErrMin= 4.43D-04
 ErrMax= 4.43D-04  0.00D+00 EMaxC= 1.00D-01 BMatC= 6.24D-05 BMatP= 5.81D-03
 IDIUse=3 WtCom= 9.96D-01 WtEn= 4.43D-03
 Coeff-Com:  0.125D-03-0.571D-03 0.180D-01 0.107D+00 0.875D+00
 Coeff-En:   0.000D+00 0.000D+00 0.000D+00 0.000D+00 0.100D+01
 Coeff:      0.125D-03-0.569D-03 0.179D-01 0.107D+00 0.876D+00
 Gap=     0.213 Goal=   None    Shift=    0.000
 RMSDP=2.95D-05 MaxDP=1.25D-03 DE=-4.79D-03 OVMax= 8.17D-03

 Cycle   6  Pass 1  IDiag  1:
 RMSU=  2.22D-05    CP:  9.61D-01  1.31D+00  6.73D-01  8.26D-01  9.40D-01
 E= -916.636589184406     Delta-E=       -0.000103111671 Rises=F Damp=F
 DIIS: error= 2.19D-04 at cycle   6 NSaved=   6.
 NSaved= 6 IEnMin= 6 EnMin= -916.636589184406     IErMin= 6 ErrMin= 2.19D-04
 ErrMax= 2.19D-04  0.00D+00 EMaxC= 1.00D-01 BMatC= 2.59D-05 BMatP= 6.24D-05
 IDIUse=3 WtCom= 9.98D-01 WtEn= 2.19D-03
 Coeff-Com:  0.182D-01-0.395D-01-0.328D-01-0.145D-01 0.427D+00 0.642D+00
 Coeff-En:   0.000D+00 0.000D+00 0.000D+00 0.000D+00 0.000D+00 0.100D+01
 Coeff:      0.181D-01-0.394D-01-0.327D-01-0.145D-01 0.426D+00 0.643D+00
 Gap=     0.214 Goal=   None    Shift=    0.000
 RMSDP=1.61D-05 MaxDP=5.45D-04 DE=-1.03D-04 OVMax= 1.98D-03

 Cycle   7  Pass 1  IDiag  1:
 RMSU=  8.11D-06    CP:  9.61D-01  1.32D+00  6.76D-01  8.38D-01  1.07D+00
                    CP:  1.04D+00
 E= -916.636620639448     Delta-E=       -0.000031455041 Rises=F Damp=F
 DIIS: error= 5.35D-05 at cycle   7 NSaved=   7.
 NSaved= 7 IEnMin= 7 EnMin= -916.636620639448     IErMin= 7 ErrMin= 5.35D-05
 ErrMax= 5.35D-05  0.00D+00 EMaxC= 1.00D-01 BMatC= 1.86D-06 BMatP= 2.59D-05
 IDIUse=1 WtCom= 1.00D+00 WtEn= 0.00D+00
 Coeff-Com:  0.557D-02-0.121D-01-0.126D-01-0.214D-01 0.398D-01 0.206D+00
 Coeff-Com:  0.795D+00
 Coeff:      0.557D-02-0.121D-01-0.126D-01-0.214D-01 0.398D-01 0.206D+00
 Coeff:      0.795D+00
 Gap=     0.214 Goal=   None    Shift=    0.000
 RMSDP=6.53D-06 MaxDP=2.57D-04 DE=-3.15D-05 OVMax= 1.34D-03

 Cycle   8  Pass 1  IDiag  1:
 RMSU=  3.44D-06    CP:  9.61D-01  1.32D+00  6.75D-01  8.49D-01  1.11D+00
                    CP:  1.17D+00  9.56D-01
 E= -916.636624004149     Delta-E=       -0.000003364701 Rises=F Damp=F
 DIIS: error= 4.20D-05 at cycle   8 NSaved=   8.
 NSaved= 8 IEnMin= 8 EnMin= -916.636624004149     IErMin= 8 ErrMin= 4.20D-05
 ErrMax= 4.20D-05  0.00D+00 EMaxC= 1.00D-01 BMatC= 5.95D-07 BMatP= 1.86D-06
 IDIUse=1 WtCom= 1.00D+00 WtEn= 0.00D+00
 Coeff-Com: -0.618D-03 0.138D-02-0.311D-03-0.903D-02-0.501D-01-0.153D-01
 Coeff-Com:  0.402D+00 0.672D+00
 Coeff:     -0.618D-03 0.138D-02-0.311D-03-0.903D-02-0.501D-01-0.153D-01
 Coeff:      0.402D+00 0.672D+00
 Gap=     0.214 Goal=   None    Shift=    0.000
 RMSDP=2.41D-06 MaxDP=9.65D-05 DE=-3.36D-06 OVMax= 5.17D-04

 Cycle   9  Pass 1  IDiag  1:
 RMSU=  1.32D-06    CP:  9.61D-01  1.32D+00  6.75D-01  8.51D-01  1.12D+00
                    CP:  1.22D+00  1.12D+00  8.78D-01
 E= -916.636624857879     Delta-E=       -0.000000853730 Rises=F Damp=F
 DIIS: error= 9.37D-06 at cycle   9 NSaved=   9.
 NSaved= 9 IEnMin= 9 EnMin= -916.636624857879     IErMin= 9 ErrMin= 9.37D-06
 ErrMax= 9.37D-06  0.00D+00 EMaxC= 1.00D-01 BMatC= 9.98D-08 BMatP= 5.95D-07
 IDIUse=1 WtCom= 1.00D+00 WtEn= 0.00D+00
 Coeff-Com: -0.113D-02 0.247D-02 0.159D-02-0.201D-02-0.302D-01-0.437D-01
 Coeff-Com:  0.669D-01 0.339D+00 0.667D+00
 Coeff:     -0.113D-02 0.247D-02 0.159D-02-0.201D-02-0.302D-01-0.437D-01
 Coeff:      0.669D-01 0.339D+00 0.667D+00
 Gap=     0.214 Goal=   None    Shift=    0.000
 RMSDP=1.13D-06 MaxDP=4.15D-05 DE=-8.54D-07 OVMax= 2.24D-04

 Cycle  10  Pass 1  IDiag  1:
 RMSU=  5.00D-07    CP:  9.61D-01  1.32D+00  6.75D-01  8.52D-01  1.13D+00
                    CP:  1.24D+00  1.15D+00  1.04D+00  9.57D-01
 E= -916.636624993906     Delta-E=       -0.000000136027 Rises=F Damp=F
 DIIS: error= 3.63D-06 at cycle  10 NSaved=  10.
 NSaved=10 IEnMin=10 EnMin= -916.636624993906     IErMin=10 ErrMin= 3.63D-06
 ErrMax= 3.63D-06  0.00D+00 EMaxC= 1.00D-01 BMatC= 9.52D-09 BMatP= 9.98D-08
 IDIUse=1 WtCom= 1.00D+00 WtEn= 0.00D+00
 Coeff-Com: -0.397D-03 0.856D-03 0.659D-03 0.777D-04-0.518D-02-0.181D-01
 Coeff-Com: -0.303D-01 0.602D-01 0.260D+00 0.732D+00
 Coeff:     -0.397D-03 0.856D-03 0.659D-03 0.777D-04-0.518D-02-0.181D-01
 Coeff:     -0.303D-01 0.602D-01 0.260D+00 0.732D+00
 Gap=     0.214 Goal=   None    Shift=    0.000
 RMSDP=3.99D-07 MaxDP=1.33D-05 DE=-1.36D-07 OVMax= 8.04D-05

 Cycle  11  Pass 1  IDiag  1:
 RMSU=  1.84D-07    CP:  9.61D-01  1.32D+00  6.75D-01  8.52D-01  1.13D+00
                    CP:  1.25D+00  1.16D+00  1.08D+00  1.08D+00  1.05D+00
 E= -916.636625010671     Delta-E=       -0.000000016764 Rises=F Damp=F
 DIIS: error= 1.51D-06 at cycle  11 NSaved=  11.
 NSaved=11 IEnMin=11 EnMin= -916.636625010671     IErMin=11 ErrMin= 1.51D-06
 ErrMax= 1.51D-06  0.00D+00 EMaxC= 1.00D-01 BMatC= 1.42D-09 BMatP= 9.52D-09
 IDIUse=1 WtCom= 1.00D+00 WtEn= 0.00D+00
 Coeff-Com:  0.312D-04-0.742D-04-0.234D-04 0.301D-03 0.371D-02 0.676D-03
 Coeff-Com: -0.212D-01-0.317D-01-0.366D-01 0.259D+00 0.826D+00
 Coeff:      0.312D-04-0.742D-04-0.234D-04 0.301D-03 0.371D-02 0.676D-03
 Coeff:     -0.212D-01-0.317D-01-0.366D-01 0.259D+00 0.826D+00
 Gap=     0.214 Goal=   None    Shift=    0.000
 RMSDP=1.89D-07 MaxDP=7.57D-06 DE=-1.68D-08 OVMax= 3.13D-05

 Cycle  12  Pass 1  IDiag  1:
 RMSU=  7.63D-08    CP:  9.61D-01  1.32D+00  6.75D-01  8.52D-01  1.13D+00
                    CP:  1.25D+00  1.17D+00  1.11D+00  1.13D+00  1.21D+00
                    CP:  1.12D+00
 E= -916.636625013605     Delta-E=       -0.000000002934 Rises=F Damp=F
 DIIS: error= 4.68D-07 at cycle  12 NSaved=  12.
 NSaved=12 IEnMin=12 EnMin= -916.636625013605     IErMin=12 ErrMin= 4.68D-07
 ErrMax= 4.68D-07  0.00D+00 EMaxC= 1.00D-01 BMatC= 1.77D-10 BMatP= 1.42D-09
 IDIUse=1 WtCom= 1.00D+00 WtEn= 0.00D+00
 Coeff-Com:  0.611D-04-0.133D-03-0.981D-04 0.856D-04 0.193D-02 0.232D-02
 Coeff-Com: -0.318D-02-0.154D-01-0.466D-01-0.825D-02 0.265D+00 0.805D+00
 Coeff:      0.611D-04-0.133D-03-0.981D-04 0.856D-04 0.193D-02 0.232D-02
 Coeff:     -0.318D-02-0.154D-01-0.466D-01-0.825D-02 0.265D+00 0.805D+00
 Gap=     0.214 Goal=   None    Shift=    0.000
 RMSDP=6.07D-08 MaxDP=2.24D-06 DE=-2.93D-09 OVMax= 1.00D-05

 Cycle  13  Pass 1  IDiag  1:
 RMSU=  2.79D-08    CP:  9.61D-01  1.32D+00  6.75D-01  8.52D-01  1.13D+00
                    CP:  1.25D+00  1.17D+00  1.11D+00  1.15D+00  1.25D+00
                    CP:  1.26D+00  1.24D+00
 E= -916.636625013959     Delta-E=       -0.000000000355 Rises=F Damp=F
 DIIS: error= 2.53D-07 at cycle  13 NSaved=  13.
 NSaved=13 IEnMin=13 EnMin= -916.636625013959     IErMin=13 ErrMin= 2.53D-07
 ErrMax= 2.53D-07  0.00D+00 EMaxC= 1.00D-01 BMatC= 2.95D-11 BMatP= 1.77D-10
 IDIUse=1 WtCom= 1.00D+00 WtEn= 0.00D+00
 Coeff-Com:  0.159D-04-0.334D-04-0.323D-04-0.257D-04-0.122D-04 0.667D-03
 Coeff-Com:  0.285D-02 0.164D-02-0.106D-01-0.525D-01-0.526D-01 0.297D+00
 Coeff-Com:  0.813D+00
 Coeff:      0.159D-04-0.334D-04-0.323D-04-0.257D-04-0.122D-04 0.667D-03
 Coeff:      0.285D-02 0.164D-02-0.106D-01-0.525D-01-0.526D-01 0.297D+00
 Coeff:      0.813D+00
 Gap=     0.214 Goal=   None    Shift=    0.000
 RMSDP=2.61D-08 MaxDP=9.39D-07 DE=-3.55D-10 OVMax= 6.49D-06

 Cycle  14  Pass 1  IDiag  1:
 RMSU=  1.15D-08    CP:  9.61D-01  1.32D+00  6.75D-01  8.52D-01  1.13D+00
                    CP:  1.25D+00  1.17D+00  1.11D+00  1.15D+00  1.27D+00
                    CP:  1.32D+00  1.43D+00  1.04D+00
 E= -916.636625014027     Delta-E=       -0.000000000068 Rises=F Damp=F
 DIIS: error= 1.01D-07 at cycle  14 NSaved=  14.
 NSaved=14 IEnMin=14 EnMin= -916.636625014027     IErMin=14 ErrMin= 1.01D-07
 ErrMax= 1.01D-07  0.00D+00 EMaxC= 1.00D-01 BMatC= 5.48D-12 BMatP= 2.95D-11
 IDIUse=1 WtCom= 1.00D+00 WtEn= 0.00D+00
 Coeff-Com: -0.252D-05 0.588D-05 0.212D-05-0.186D-04-0.261D-03-0.417D-04
 Coeff-Com:  0.150D-02 0.286D-02 0.134D-02-0.220D-01-0.554D-01 0.625D-02
 Coeff-Com:  0.349D+00 0.717D+00
 Coeff:     -0.252D-05 0.588D-05 0.212D-05-0.186D-04-0.261D-03-0.417D-04
 Coeff:      0.150D-02 0.286D-02 0.134D-02-0.220D-01-0.554D-01 0.625D-02
 Coeff:      0.349D+00 0.717D+00
 Gap=     0.214 Goal=   None    Shift=    0.000
 RMSDP=9.11D-09 MaxDP=3.29D-07 DE=-6.78D-11 OVMax= 1.92D-06

 Error on total polarization charges =  0.01561
 SCF Done:  E(RCAM-B3LYP) =  -916.636625014     A.U. after   14 cycles
            NFock= 14  Conv=0.91D-08     -V/T= 2.0034
 KE= 9.135312419156D+02 PE=-5.602827228238D+03 EE= 2.037393546180D+03
 Leave Link  502 at Thu Feb 13 13:29:08 2025, MaxMem= 25501368320 cpu:            1853.8 elap:              52.7
 (Enter /share/Apps/gaussian/g16/l801.exe)
 DoSCS=F DFT=T ScalE2(SS,OS)=  1.000000  1.000000
 ExpMin= 1.03D-01 ExpMax= 6.29D+03 ExpMxC= 9.49D+02 IAcc=3 IRadAn=         5 AccDes= 0.00D+00
 HarFok:  IExCor=  205 AccDes= 0.00D+00 IRadAn=         5 IDoV=-2 UseB2=F ITyADJ=14
 ICtDFT= 12500011 ScaDFX=  1.000000  1.000000  1.000000  1.000000
 GSVD:  LWork=        -660 too small for GESVD, short by        2750 words or        2750 for optimal perf.
 Largest valence mixing into a core orbital is  5.14D-05
 Largest core mixing into a valence orbital is  1.58D-05
 Range of M.O.s used for correlation:    23   516
 NBasis=   516 NAE=    78 NBE=    78 NFC=    22 NFV=     0
 NROrb=    494 NOA=    56 NOB=    56 NVA=   438 NVB=   438

 **** Warning!!: The largest alpha MO coefficient is  0.15921761D+02

 Leave Link  801 at Thu Feb 13 13:29:08 2025, MaxMem= 25501368320 cpu:              16.2 elap:               0.6
 (Enter /share/Apps/gaussian/g16/l914.exe)
 RHF ground state
 Two-electron integrals replicated using symmetry.
 MDV= 25501368320 DFT=T DoStab=F Mixed=T DoRPA=T DoScal=F NonHer=T
 NEqPCM:  Using non-equilibrium solvation (IEInf=1, Eps=  35.6880, EpsInf=   1.8069)
 Inv3:  Mode=1 IEnd=    26054427.
 Iteration    1 A*A^-1 deviation from unit magnitude is 2.89D-15 for   2257.
 Iteration    1 A*A^-1 deviation from orthogonality  is 3.19D-15 for   2280   2019.
 Iteration    1 A^-1*A deviation from unit magnitude is 2.89D-15 for    612.
 Iteration    1 A^-1*A deviation from orthogonality  is 2.00D-15 for   2797   1200.
 Making orbital integer symmetry assigments:
 Orbital symmetries:
       Occupied  (A) (A) (A) (A) (A) (A) (A) (A) (A) (A) (A) (A)
                 (A) (A) (A) (A) (A) (A) (A) (A) (A) (A) (A) (A)
                 (A) (A) (A) (A) (A) (A) (A) (A) (A) (A) (A) (A)
                 (A) (A) (A) (A) (A) (A) (A) (A) (A) (A) (A) (A)
                 (A) (A) (A) (A) (A) (A) (A) (A) (A) (A) (A) (A)
                 (A) (A) (A) (A) (A) (A) (A) (A) (A) (A) (A) (A)
                 (A) (A) (A) (A) (A) (A)
       Virtual   (A) (A) (A) (A) (A) (A) (A) (A) (A) (A) (A) (A)
                 (A) (A) (A) (A) (A) (A) (A) (A) (A) (A) (A) (A)
                 (A) (A) (A) (A) (A) (A) (A) (A) (A) (A) (A) (A)
                 (A) (A) (A) (A) (A) (A) (A) (A) (A) (A) (A) (A)
                 (A) (A) (A) (A) (A) (A) (A) (A) (A) (A) (A) (A)
                 (A) (A) (A) (A) (A) (A) (A) (A) (A) (A) (A) (A)
                 (A) (A) (A) (A) (A) (A) (A) (A) (A) (A) (A) (A)
                 (A) (A) (A) (A) (A) (A) (A) (A) (A) (A) (A) (A)
                 (A) (A) (A) (A) (A) (A) (A) (A) (A) (A) (A) (A)
                 (A) (A) (A) (A) (A) (A) (A) (A) (A) (A) (A) (A)
                 (A) (A) (A) (A) (A) (A) (A) (A) (A) (A) (A) (A)
                 (A) (A) (A) (A) (A) (A) (A) (A) (A) (A) (A) (A)
                 (A) (A) (A) (A) (A) (A) (A) (A) (A) (A) (A) (A)
                 (A) (A) (A) (A) (A) (A) (A) (A) (A) (A) (A) (A)
                 (A) (A) (A) (A) (A) (A) (A) (A) (A) (A) (A) (A)
                 (A) (A) (A) (A) (A) (A) (A) (A) (A) (A) (A) (A)
                 (A) (A) (A) (A) (A) (A) (A) (A) (A) (A) (A) (A)
                 (A) (A) (A) (A) (A) (A) (A) (A) (A) (A) (A) (A)
                 (A) (A) (A) (A) (A) (A) (A) (A) (A) (A) (A) (A)
                 (A) (A) (A) (A) (A) (A) (A) (A) (A) (A) (A) (A)
                 (A) (A) (A) (A) (A) (A) (A) (A) (A) (A) (A) (A)
                 (A) (A) (A) (A) (A) (A) (A) (A) (A) (A) (A) (A)
                 (A) (A) (A) (A) (A) (A) (A) (A) (A) (A) (A) (A)
                 (A) (A) (A) (A) (A) (A) (A) (A) (A) (A) (A) (A)
                 (A) (A) (A) (A) (A) (A) (A) (A) (A) (A) (A) (A)
                 (A) (A) (A) (A) (A) (A) (A) (A) (A) (A) (A) (A)
                 (A) (A) (A) (A) (A) (A) (A) (A) (A) (A) (A) (A)
                 (A) (A) (A) (A) (A) (A) (A) (A) (A) (A) (A) (A)
                 (A) (A) (A) (A) (A) (A) (A) (A) (A) (A) (A) (A)
                 (A) (A) (A) (A) (A) (A) (A) (A) (A) (A) (A) (A)
                 (A) (A) (A) (A) (A) (A) (A) (A) (A) (A) (A) (A)
                 (A) (A) (A) (A) (A) (A) (A) (A) (A) (A) (A) (A)
                 (A) (A) (A) (A) (A) (A) (A) (A) (A) (A) (A) (A)
                 (A) (A) (A) (A) (A) (A) (A) (A) (A) (A) (A) (A)
                 (A) (A) (A) (A) (A) (A) (A) (A) (A) (A) (A) (A)
                 (A) (A) (A) (A) (A) (A) (A) (A) (A) (A) (A) (A)
                 (A) (A) (A) (A) (A) (A)
    80 initial guesses have been made.
 Convergence on wavefunction:    0.001000000000000
 Davidson Disk Diagonalization:  ConvIn= 1.00D-03 SkipCon=T Conv= 1.00D-03.
 Max sub-space:  2000 roots to seek:    80 dimension of matrix:        49056
 Iteration     1 Dimension    80 NMult     0 NNew     80
 CISAX will form    80 AO SS matrices at one time.
 NMat=    80 NSing=    80 JSym2X= 0.
 FoFJK:  IHMeth= 1 ICntrl=       0 DoSepK=T KAlg= 0 I1Cent=           0 FoldK=F
 IRaf=         1 NMat=     160 IRICut=       1 DoRegI=T DoRafI=F ISym2E= 0 IDoP0=3 IntGTp=3.
 New state      2 was old state      6
 New state      3 was old state      4
 New state      4 was old state      2
 New state      5 was old state      3
 New state      6 was old state      5
 New state      7 was old state     12
 New state      8 was old state      9
 New state      9 was old state      7
 New state     11 was old state      8
 New state     12 was old state     11
 New state     15 was old state     19
 New state     18 was old state     21
 New state     19 was old state     15
 New state     20 was old state     18
 Excitation Energies [eV] at current iteration:
 Root      1 :     2.964897138115562
 Root      2 :     4.290182169941504
 Root      3 :     4.566215195766234
 Root      4 :     4.702525502203020
 Root      5 :     4.801988052920314
 Root      6 :     5.127826928071312
 Root      7 :     5.312948472955797
 Root      8 :     5.646685977997086
 Root      9 :     5.816756187290105
 Root     10 :     5.859533223565371
 Root     11 :     6.083099885712773
 Root     12 :     6.151068520744966
 Root     13 :     6.231057916618371
 Root     14 :     6.280560766550248
 Root     15 :     6.381334788081975
 Root     16 :     6.455603656263457
 Root     17 :     6.581096278642705
 Root     18 :     6.622970167147340
 Root     19 :     6.751178486313601
 Root     20 :     6.980148081649653
 Root     21 :     6.997379967624598
 Root     22 :     7.047161937119145
 Root     23 :     7.078540269120078
 Root     24 :     7.184564403972624
 Root     25 :     7.211837719542430
 Root     26 :     7.249613278801830
 Root     27 :     7.328999563065990
 Root     28 :     7.415636283544325
 Root     29 :     7.488423028394928
 Root     30 :     7.499390168318596
 Root     31 :     7.551806140509576
 Root     32 :     7.595327937029219
 Root     33 :     7.624539910216458
 Root     34 :     7.651536666905237
 Root     35 :     7.708449002797161
 Root     36 :     7.739360424271512
 Root     37 :     7.799767594093273
 Root     38 :     7.931559788269531
 Root     39 :     7.960180905636311
 Root     40 :     7.973027701788288
 Root     41 :     7.980021683037448
 Root     42 :     8.043213084720819
 Root     43 :     8.101654751070789
 Root     44 :     8.209396387365308
 Root     45 :     8.210504080457406
 Root     46 :     8.294020277494340
 Root     47 :     8.317416078975818
 Root     48 :     8.339149569771120
 Root     49 :     8.361803274034850
 Root     50 :     8.408121819915230
 Root     51 :     8.444256049882640
 Root     52 :     8.465988505980677
 Root     53 :     8.499391800775223
 Root     54 :     8.550943964157840
 Root     55 :     8.576599638436393
 Root     56 :     8.596217714326823
 Root     57 :     8.647311202683268
 Root     58 :     8.739445106608764
 Root     59 :     8.774271275257568
 Root     60 :     8.793902255184376
 Root     61 :     8.846324571772010
 Root     62 :     8.856310912195706
 Root     63 :     8.895638546972995
 Root     64 :     8.950037632451144
 Root     65 :     8.963019598807971
 Root     66 :     8.999616053535448
 Root     67 :     9.049537851161746
 Root     68 :     9.089816092701838
 Root     69 :     9.171228633200190
 Root     70 :     9.185898167117275
 Root     71 :     9.256255991803000
 Root     72 :     9.307719028601797
 Root     73 :     9.333207638153006
 Root     74 :     9.350263332505481
 Root     75 :     9.362010853114231
 Root     76 :     9.396698387241351
 Root     77 :     9.410718526929259
 Root     78 :     9.457009972806464
 Root     79 :     9.477309920942998
 Root     80 :     9.521354211093179
 Iteration     2 Dimension   120 NMult    80 NNew     40
 CISAX will form    40 AO SS matrices at one time.
 NMat=    40 NSing=    40 JSym2X= 0.
 Root      1 not converged, maximum delta is    0.031531160872131
 Root      2 not converged, maximum delta is    0.038307385376109
 Root      3 not converged, maximum delta is    0.281446672360563
 Root      4 not converged, maximum delta is    0.470924014654378
 Root      5 not converged, maximum delta is    0.379280246202967
 Root      6 not converged, maximum delta is    0.147463814058369
 Root      7 not converged, maximum delta is    0.151844528729316
 Root      8 not converged, maximum delta is    0.122736978899237
 Root      9 not converged, maximum delta is    0.260560711595503
 New state     10 was old state     12
 Root     10 not converged, maximum delta is    0.290967711536656
 New state     11 was old state     10
 Root     11 not converged, maximum delta is    0.200611779818202
 New state     12 was old state     11
 Root     12 not converged, maximum delta is    0.319587205916377
 New state     13 was old state     14
 Root     13 not converged, maximum delta is    0.218825908698934
 New state     14 was old state     13
 Root     14 not converged, maximum delta is    0.221604510018911
 New state     15 was old state     16
 Root     15 not converged, maximum delta is    0.284852154927624
 New state     16 was old state     18
 Root     16 not converged, maximum delta is    0.373629647359118
 New state     17 was old state     15
 Root     17 not converged, maximum delta is    0.317066365113919
 New state     18 was old state     17
 Root     18 not converged, maximum delta is    0.204129456725204
 Root     19 not converged, maximum delta is    0.262084781546672
 Root     20 not converged, maximum delta is    0.211798768666224
 Excitation Energies [eV] at current iteration:
 Root      1 :     2.708743531046012   Change is   -0.256153607069550
 Root      2 :     3.974600831436735   Change is   -0.315581338504770
 Root      3 :     4.293332914282913   Change is   -0.272882281483321
 Root      4 :     4.424274275314841   Change is   -0.278251226888180
 Root      5 :     4.561772121369120   Change is   -0.240215931551195
 Root      6 :     4.919999928381004   Change is   -0.207826999690308
 Root      7 :     5.138912138731579   Change is   -0.174036334224218
 Root      8 :     5.458953627562124   Change is   -0.187732350434961
 Root      9 :     5.569426268879088   Change is   -0.247329918411017
 Root     10 :     5.675300039769859   Change is   -0.475768480975106
 Root     11 :     5.725111629482054   Change is   -0.134421594083317
 Root     12 :     5.891320658050969   Change is   -0.191779227661805
 Root     13 :     6.113216044273762   Change is   -0.167344722276485
 Root     14 :     6.118741377619218   Change is   -0.112316538999154
 Root     15 :     6.195867780143483   Change is   -0.259735876119974
 Root     16 :     6.217729516980106   Change is   -0.405240650167234
 Root     17 :     6.298913142181829   Change is   -0.082421645900146
 Root     18 :     6.474269209232710   Change is   -0.106827069409995
 Root     19 :     6.507071686409582   Change is   -0.244106799904019
 Root     20 :     6.683387968807551   Change is   -0.296760112842102
 Iteration     3 Dimension   160 NMult   120 NNew     40
 CISAX will form    40 AO SS matrices at one time.
 NMat=    40 NSing=    40 JSym2X= 0.
 Root      1 not converged, maximum delta is    0.005104954683051
 Root      2 not converged, maximum delta is    0.003427324777762
 Root      3 not converged, maximum delta is    0.022847579619442
 Root      4 not converged, maximum delta is    0.027516917545992
 Root      5 not converged, maximum delta is    0.006685616325378
 Root      6 not converged, maximum delta is    0.010084801234277
 Root      7 not converged, maximum delta is    0.008728580656133
 Root      8 not converged, maximum delta is    0.013089917378431
 Root      9 not converged, maximum delta is    0.024474330105078
 Root     10 not converged, maximum delta is    0.029134180312100
 Root     11 not converged, maximum delta is    0.040709394992498
 Root     12 not converged, maximum delta is    0.023306594731113
 Root     13 not converged, maximum delta is    0.087330954430176
 Root     14 not converged, maximum delta is    0.111087558380569
 Root     15 not converged, maximum delta is    0.110963743946188
 Root     16 not converged, maximum delta is    0.145551507785359
 Root     17 not converged, maximum delta is    0.054524704096547
 Root     18 not converged, maximum delta is    0.067799026954718
 Root     19 not converged, maximum delta is    0.073633247582336
 Root     20 not converged, maximum delta is    0.079359656952308
 Excitation Energies [eV] at current iteration:
 Root      1 :     2.700415237761506   Change is   -0.008328293284506
 Root      2 :     3.962712609086174   Change is   -0.011888222350561
 Root      3 :     4.271391509845406   Change is   -0.021941404437507
 Root      4 :     4.415015961631313   Change is   -0.009258313683528
 Root      5 :     4.552586658856518   Change is   -0.009185462512600
 Root      6 :     4.910920725883289   Change is   -0.009079202497715
 Root      7 :     5.130278292281608   Change is   -0.008633846449970
 Root      8 :     5.451218950320507   Change is   -0.007734677241618
 Root      9 :     5.556106921140586   Change is   -0.013319347738502
 Root     10 :     5.660211848171516   Change is   -0.015088191598344
 Root     11 :     5.713292005723098   Change is   -0.011819623758956
 Root     12 :     5.874674888267968   Change is   -0.016645769783001
 Root     13 :     6.100743559862219   Change is   -0.012472484411543
 Root     14 :     6.114569584147884   Change is   -0.004171793471334
 Root     15 :     6.175263236541867   Change is   -0.020604543601616
 Root     16 :     6.191758648251811   Change is   -0.025970868728295
 Root     17 :     6.287661387756992   Change is   -0.011251754424837
 Root     18 :     6.468712382974370   Change is   -0.005556826258340
 Root     19 :     6.472006543613132   Change is   -0.035065142796450
 Root     20 :     6.649438937253645   Change is   -0.033949031553906
 Iteration     4 Dimension   200 NMult   160 NNew     40
 CISAX will form    40 AO SS matrices at one time.
 NMat=    40 NSing=    40 JSym2X= 0.
 Root      1 has converged.
 Root      2 has converged.
 Root      3 not converged, maximum delta is    0.001689840337642
 Root      4 not converged, maximum delta is    0.001455806537377
 Root      5 has converged.
 Root      6 has converged.
 Root      7 has converged.
 Root      8 not converged, maximum delta is    0.001165009479547
 Root      9 not converged, maximum delta is    0.002046148635090
 Root     10 not converged, maximum delta is    0.002219369277536
 Root     11 not converged, maximum delta is    0.002746655248325
 Root     12 not converged, maximum delta is    0.002135870050944
 Root     13 not converged, maximum delta is    0.004014447563075
 Root     14 not converged, maximum delta is    0.004606828129456
 Root     15 not converged, maximum delta is    0.012085299986443
 Root     16 not converged, maximum delta is    0.016130723155098
 Root     17 not converged, maximum delta is    0.006264556158906
 Root     18 not converged, maximum delta is    0.137696505149685
 Root     19 not converged, maximum delta is    0.149963102566356
 Root     20 not converged, maximum delta is    0.054624566326111
 Excitation Energies [eV] at current iteration:
 Root      1 :     2.699961147087601   Change is   -0.000454090673905
 Root      2 :     3.962037273015159   Change is   -0.000675336071015
 Root      3 :     4.270202081138629   Change is   -0.001189428706777
 Root      4 :     4.414518036342053   Change is   -0.000497925289259
 Root      5 :     4.552093521716367   Change is   -0.000493137140152
 Root      6 :     4.910458305577074   Change is   -0.000462420306215
 Root      7 :     5.129846613654621   Change is   -0.000431678626987
 Root      8 :     5.450752835420185   Change is   -0.000466114900322
 Root      9 :     5.555215742492344   Change is   -0.000891178648242
 Root     10 :     5.659103206674660   Change is   -0.001108641496856
 Root     11 :     5.712451583596835   Change is   -0.000840422126262
 Root     12 :     5.873486752709334   Change is   -0.001188135558635
 Root     13 :     6.099784956064127   Change is   -0.000958603798092
 Root     14 :     6.114307518246181   Change is   -0.000262065901703
 Root     15 :     6.173089061402732   Change is   -0.002174175139135
 Root     16 :     6.189866128217385   Change is   -0.001892520034426
 Root     17 :     6.286570248806511   Change is   -0.001091138950482
 Root     18 :     6.467815436019764   Change is   -0.000896946954605
 Root     19 :     6.469425982069172   Change is   -0.002580561543960
 Root     20 :     6.645457856946639   Change is   -0.003981080307005
 Iteration     5 Dimension   230 NMult   200 NNew     30
 CISAX will form    30 AO SS matrices at one time.
 NMat=    30 NSing=    30 JSym2X= 0.
 Root      1 has converged.
 Root      2 has converged.
 Root      3 has converged.
 Root      4 has converged.
 Root      5 has converged.
 Root      6 has converged.
 Root      7 has converged.
 Root      8 has converged.
 Root      9 has converged.
 Root     10 has converged.
 Root     11 has converged.
 Root     12 has converged.
 Root     13 has converged.
 Root     14 has converged.
 Root     15 has converged.
 Root     16 not converged, maximum delta is    0.001032686194154
 Root     17 has converged.
 Root     18 not converged, maximum delta is    0.011939919566228
 Root     19 not converged, maximum delta is    0.013051613878208
 Root     20 not converged, maximum delta is    0.118948997138419
 Excitation Energies [eV] at current iteration:
 Root      1 :     2.699954818952420   Change is   -0.000006328135181
 Root      2 :     3.962027883263634   Change is   -0.000009389751525
 Root      3 :     4.270162403096541   Change is   -0.000039678042088
 Root      4 :     4.414501827707820   Change is   -0.000016208634233
 Root      5 :     4.552081616716155   Change is   -0.000011905000212
 Root      6 :     4.910443960238891   Change is   -0.000014345338184
 Root      7 :     5.129841669196481   Change is   -0.000004944458140
 Root      8 :     5.450731320039950   Change is   -0.000021515380235
 Root      9 :     5.555171534185997   Change is   -0.000044208306346
 Root     10 :     5.659039768173954   Change is   -0.000063438500706
 Root     11 :     5.712414673485225   Change is   -0.000036910111611
 Root     12 :     5.873429175519814   Change is   -0.000057577189520
 Root     13 :     6.099723600542670   Change is   -0.000061355521458
 Root     14 :     6.114291690311147   Change is   -0.000015827935034
 Root     15 :     6.172954466731334   Change is   -0.000134594671397
 Root     16 :     6.189746734155830   Change is   -0.000119394061555
 Root     17 :     6.286493385123591   Change is   -0.000076863682920
 Root     18 :     6.467714041221389   Change is   -0.000101394798376
 Root     19 :     6.469292754448240   Change is   -0.000133227620932
 Root     20 :     6.643046215330650   Change is   -0.002411641615990
 Iteration     6 Dimension   238 NMult   230 NNew      8
 CISAX will form     8 AO SS matrices at one time.
 NMat=     8 NSing=     8 JSym2X= 0.
 Root      1 has converged.
 Root      2 has converged.
 Root      3 has converged.
 Root      4 has converged.
 Root      5 has converged.
 Root      6 has converged.
 Root      7 has converged.
 Root      8 has converged.
 Root      9 has converged.
 Root     10 has converged.
 Root     11 has converged.
 Root     12 has converged.
 Root     13 has converged.
 Root     14 has converged.
 Root     15 has converged.
 Root     16 has converged.
 Root     17 has converged.
 Root     18 has converged.
 Root     19 has converged.
 Root     20 not converged, maximum delta is    0.052610439232276
 Excitation Energies [eV] at current iteration:
 Root      1 :     2.699954459849343   Change is   -0.000000359103077
 Root      2 :     3.962027108079445   Change is   -0.000000775184189
 Root      3 :     4.270162204369100   Change is   -0.000000198727441
 Root      4 :     4.414501786424077   Change is   -0.000000041283743
 Root      5 :     4.552081421122677   Change is   -0.000000195593479
 Root      6 :     4.910443629413863   Change is   -0.000000330825028
 Root      7 :     5.129841250722134   Change is   -0.000000418474347
 Root      8 :     5.450731285286492   Change is   -0.000000034753458
 Root      9 :     5.555171451779081   Change is   -0.000000082406916
 Root     10 :     5.659039535793253   Change is   -0.000000232380701
 Root     11 :     5.712414266630533   Change is   -0.000000406854693
 Root     12 :     5.873428711751997   Change is   -0.000000463767817
 Root     13 :     6.099722144700720   Change is   -0.000001455841950
 Root     14 :     6.114291639715118   Change is   -0.000000050596030
 Root     15 :     6.172952262912581   Change is   -0.000002203818754
 Root     16 :     6.189740054587964   Change is   -0.000006679567865
 Root     17 :     6.286493054032317   Change is   -0.000000331091274
 Root     18 :     6.467707468447866   Change is   -0.000006572773523
 Root     19 :     6.469284111251287   Change is   -0.000008643196952
 Root     20 :     6.642078631936362   Change is   -0.000967583394289
 Iteration     7 Dimension   240 NMult   238 NNew      2
 CISAX will form     2 AO SS matrices at one time.
 NMat=     2 NSing=     2 JSym2X= 0.
 Root      1 has converged.
 Root      2 has converged.
 Root      3 has converged.
 Root      4 has converged.
 Root      5 has converged.
 Root      6 has converged.
 Root      7 has converged.
 Root      8 has converged.
 Root      9 has converged.
 Root     10 has converged.
 Root     11 has converged.
 Root     12 has converged.
 Root     13 has converged.
 Root     14 has converged.
 Root     15 has converged.
 Root     16 has converged.
 Root     17 has converged.
 Root     18 has converged.
 Root     19 has converged.
 Root     20 not converged, maximum delta is    0.006553275753323
 Excitation Energies [eV] at current iteration:
 Root      1 :     2.699954408547364   Change is   -0.000000051301979
 Root      2 :     3.962026886824611   Change is   -0.000000221254834
 Root      3 :     4.270162198602279   Change is   -0.000000005766821
 Root      4 :     4.414501785271645   Change is   -0.000000001152432
 Root      5 :     4.552081408886147   Change is   -0.000000012236529
 Root      6 :     4.910443446963765   Change is   -0.000000182450099
 Root      7 :     5.129841222182455   Change is   -0.000000028539679
 Root      8 :     5.450731282686353   Change is   -0.000000002600139
 Root      9 :     5.555171440283924   Change is   -0.000000011495157
 Root     10 :     5.659039529273730   Change is   -0.000000006519523
 Root     11 :     5.712414263712147   Change is   -0.000000002918385
 Root     12 :     5.873428701263991   Change is   -0.000000010488006
 Root     13 :     6.099722138746899   Change is   -0.000000005953820
 Root     14 :     6.114291633136316   Change is   -0.000000006578802
 Root     15 :     6.172952197841586   Change is   -0.000000065070995
 Root     16 :     6.189740040440001   Change is   -0.000000014147963
 Root     17 :     6.286493048992565   Change is   -0.000000005039752
 Root     18 :     6.467707435341461   Change is   -0.000000033106405
 Root     19 :     6.469284057681318   Change is   -0.000000053569969
 Root     20 :     6.641969806845804   Change is   -0.000108825090558
 Iteration     8 Dimension   242 NMult   240 NNew      2
 CISAX will form     2 AO SS matrices at one time.
 NMat=     2 NSing=     2 JSym2X= 0.
 Root      1 has converged.
 Root      2 has converged.
 Root      3 has converged.
 Root      4 has converged.
 Root      5 has converged.
 Root      6 has converged.
 Root      7 has converged.
 Root      8 has converged.
 Root      9 has converged.
 Root     10 has converged.
 Root     11 has converged.
 Root     12 has converged.
 Root     13 has converged.
 Root     14 has converged.
 Root     15 has converged.
 Root     16 has converged.
 Root     17 has converged.
 Root     18 has converged.
 Root     19 has converged.
 Root     20 has converged.
 Excitation Energies [eV] at current iteration:
 Root      1 :     2.699954362867712   Change is   -0.000000045679652
 Root      2 :     3.962026798814426   Change is   -0.000000088010185
 Root      3 :     4.270162195047545   Change is   -0.000000003554734
 Root      4 :     4.414501783830980   Change is   -0.000000001440665
 Root      5 :     4.552081375046784   Change is   -0.000000033839364
 Root      6 :     4.910443409920636   Change is   -0.000000037043129
 Root      7 :     5.129841194212606   Change is   -0.000000027969850
 Root      8 :     5.450731281839141   Change is   -0.000000000847212
 Root      9 :     5.555171421609217   Change is   -0.000000018674706
 Root     10 :     5.659039524937492   Change is   -0.000000004336238
 Root     11 :     5.712414261668880   Change is   -0.000000002043267
 Root     12 :     5.873428697043789   Change is   -0.000000004220201
 Root     13 :     6.099722106914173   Change is   -0.000000031832726
 Root     14 :     6.114291630842265   Change is   -0.000000002294050
 Root     15 :     6.172952184503543   Change is   -0.000000013338043
 Root     16 :     6.189740038008641   Change is   -0.000000002431360
 Root     17 :     6.286492916416886   Change is   -0.000000132575678
 Root     18 :     6.467707428826207   Change is   -0.000000006515253
 Root     19 :     6.469284053024656   Change is   -0.000000004656662
 Root     20 :     6.641961228920350   Change is   -0.000008577925454
 Convergence achieved on expansion vectors.
 ***********************************************************************
 Excited states from <AA,BB:AA,BB> singles matrix:
 ***********************************************************************
 
 1PDM for each excited state written to RWF  633
 Ground to excited state transition densities written to RWF  633
 Ground to excited state transition electric dipole moments (Au):
       state          X           Y           Z        Dip. S.      Osc.
         1         1.4560     -0.2081      0.2046      2.2052      0.1459
         2         2.1192     -0.0777      0.1263      4.5130      0.4381
         3        -0.0874      0.7665      0.2777      0.6724      0.0703
         4        -0.6055      0.3359      0.6884      0.9534      0.1031
         5        -0.2043     -0.1017      0.2013      0.0926      0.0103
         6        -0.5219     -0.7974      0.4121      1.0781      0.1297
         7        -0.4865      0.3230      0.0565      0.3442      0.0433
         8        -0.7127     -0.3599      0.4016      0.7988      0.1067
         9         0.7757      0.9872      0.1652      1.6035      0.2182
        10        -0.3673     -0.0614     -0.3443      0.2572      0.0357
        11        -0.0552      0.7096      0.2702      0.5796      0.0811
        12        -0.2552     -1.0713      0.2945      1.2996      0.1870
        13         0.2828     -0.0050     -0.1008      0.0902      0.0135
        14         0.2203     -0.3732      0.1159      0.2013      0.0301
        15        -0.2372     -0.1417      0.3302      0.1854      0.0280
        16         0.1520      0.6967     -0.2592      0.5756      0.0873
        17         0.0435      0.0479     -0.0356      0.0055      0.0008
        18         0.9626     -0.0408     -0.0269      0.9290      0.1472
        19        -0.9959     -0.0658      0.3160      1.0961      0.1737
        20        -0.1692      0.9083     -0.6533      1.2804      0.2084
 Ground to excited state transition velocity dipole moments (Au):
       state          X           Y           Z        Dip. S.      Osc.
         1        -0.1431      0.0254     -0.0318      0.0221      0.1486
         2        -0.3013      0.0106     -0.0158      0.0911      0.4173
         3         0.0130     -0.1137     -0.0402      0.0147      0.0625
         4         0.1007     -0.0568     -0.1193      0.0276      0.1134
         5         0.0330      0.0123     -0.0331      0.0023      0.0093
         6         0.0942      0.1384     -0.0788      0.0342      0.1264
         7         0.0924     -0.0584     -0.0110      0.0121      0.0427
         8         0.1458      0.0708     -0.0840      0.0333      0.1109
         9        -0.1607     -0.2019     -0.0348      0.0678      0.2214
        10         0.0771      0.0151      0.0661      0.0105      0.0338
        11         0.0143     -0.1516     -0.0622      0.0271      0.0859
        12         0.0499      0.2310     -0.0604      0.0595      0.1838
        13        -0.0646      0.0031      0.0214      0.0046      0.0138
        14        -0.0459      0.0772     -0.0236      0.0086      0.0256
        15         0.0546      0.0309     -0.0716      0.0091      0.0266
        16        -0.0316     -0.1569      0.0605      0.0293      0.0858
        17        -0.0107     -0.0082      0.0046      0.0002      0.0006
        18        -0.2238      0.0056      0.0114      0.0502      0.1409
        19         0.2361      0.0145     -0.0723      0.0612      0.1716
        20         0.0385     -0.2168      0.1572      0.0732      0.1999
 Ground to excited state transition magnetic dipole moments (Au):
       state          X           Y           Z
         1         1.0609      0.0450     -0.9642
         2        -0.6554      0.7878     -1.8852
         3         0.1692     -0.0173      0.2715
         4         0.3846      0.0788      0.2422
         5        -0.0622     -0.2319     -0.3461
         6        -0.1620     -0.2670     -1.2111
         7        -0.1121     -0.1073      0.2549
         8         0.0388      0.3142     -0.4349
         9         0.2163      0.9239      0.4346
[...]
    11  C    0.004498  -0.000048   0.000227  -0.000065   0.000016   0.000011
    12  H   -0.005490   0.003266  -0.000752  -0.000069  -0.000008  -0.000018
    13  H    0.000005  -0.000000  -0.000000   0.000000   0.000000  -0.000000
    14  H   -0.000171  -0.000031   0.000006  -0.000001  -0.000001   0.000000
    15  C   -0.000005  -0.000001   0.000000  -0.000000   0.000000  -0.000005
    16  C    0.000001  -0.000000   0.000000   0.000000  -0.000000  -0.000002
    17  C    0.000062  -0.000002  -0.000005   0.000001  -0.000001   0.000038
    18  C    0.000000   0.000000  -0.000000   0.000000  -0.000000   0.000000
    19  H    0.000000  -0.000000   0.000000  -0.000000  -0.000000  -0.000000
    20  C    0.000005   0.000000  -0.000000   0.000000   0.000000   0.000004
    21  H    0.000089  -0.000022   0.000004   0.000000  -0.000001   0.000085
    22  C   -0.000000  -0.000000   0.000000  -0.000000   0.000000   0.000000
    23  H    0.000000   0.000000  -0.000000   0.000000  -0.000000  -0.000000
    24  H    0.000000   0.000000  -0.000000   0.000000   0.000000  -0.000001
    25  N    6.640262   0.292438  -0.031231  -0.038285  -0.017131  -0.048336
    26  C    0.292438   4.777998   0.409049   0.410256   0.407412  -0.005960
    27  H   -0.031231   0.409049   0.537451  -0.035731  -0.021803   0.000194
    28  H   -0.038285   0.410256  -0.035731   0.539311  -0.023239  -0.000364
    29  H   -0.017131   0.407412  -0.021803  -0.023239   0.513932   0.003432
    30  C   -0.048336  -0.005960   0.000194  -0.000364   0.003432   4.827341
    31  H   -0.003486  -0.000425   0.000196  -0.000254  -0.001612   0.414100
    32  H    0.004170   0.000413   0.000002  -0.000039   0.000226   0.407525
    33  H   -0.001488  -0.000609  -0.000017   0.000036  -0.000299   0.404506
    34  C    0.000000  -0.000000  -0.000000   0.000000  -0.000000   0.000000
    35  H    0.000000  -0.000000  -0.000000   0.000000  -0.000000   0.000000
    36  H    0.000000  -0.000000  -0.000000   0.000000   0.000000  -0.000000
    37  H   -0.000000   0.000000   0.000000  -0.000000   0.000000  -0.000000
    38  N   -0.000000  -0.000000   0.000000  -0.000000   0.000000  -0.000000
    39  C   -0.000000  -0.000000  -0.000000   0.000000  -0.000000  -0.000000
    40  H    0.000000  -0.000000  -0.000000   0.000000  -0.000000  -0.000000
    41  H    0.000000  -0.000000  -0.000000   0.000000  -0.000000   0.000000
    42  H   -0.000000   0.000000   0.000000  -0.000000   0.000000  -0.000000
              31         32         33         34         35         36
     1  N    0.000033   0.026201  -0.000184   0.000000   0.000000   0.000000
     2  N   -0.000044  -0.001956   0.000164  -0.000000  -0.000001  -0.000000
     3  C    0.002727  -0.019014   0.000908  -0.000000  -0.000000  -0.000000
     4  C    0.000845   0.004697  -0.001041   0.000000  -0.000000   0.000000
     5  C   -0.044382  -0.032089  -0.035968  -0.000000  -0.000000  -0.000000
     6  C   -0.000962  -0.001031   0.000134   0.000000   0.000000  -0.000000
     7  C    0.000041   0.000085  -0.000013  -0.000002   0.000000   0.000000
     8  C   -0.000040  -0.000006   0.000024  -0.000000  -0.000000   0.000000
     9  C   -0.000002  -0.000001   0.000000  -0.000001   0.000000  -0.000000
    10  H    0.000002   0.000003  -0.000002   0.000001  -0.000002   0.000000
    11  C   -0.000000   0.000001  -0.000001  -0.000000  -0.000000  -0.000000
    12  H   -0.000004  -0.000002   0.000000  -0.000000   0.000000   0.000000
    13  H    0.000000  -0.000000   0.000000  -0.000000  -0.000000   0.000000
    14  H    0.000000   0.000000  -0.000000   0.000000   0.000000  -0.000000
    15  C    0.000007   0.000249  -0.000027   0.000027  -0.000145  -0.000001
    16  C   -0.000000  -0.000027   0.000000  -0.000273  -0.000046   0.000021
    17  C   -0.000009  -0.000017   0.000085  -0.000033  -0.000335   0.000021
    18  C   -0.000000   0.000000   0.000000   0.005275   0.000971  -0.000271
    19  H    0.000000  -0.000007  -0.000000   0.000013   0.000004  -0.000000
    20  C   -0.000000   0.000006   0.000003  -0.011869   0.000621   0.000928
    21  H    0.000006  -0.000070  -0.000054  -0.000025   0.000020  -0.000001
    22  C    0.000000  -0.000000  -0.000000  -0.076902   0.000397   0.006213
    23  H   -0.000000  -0.000000   0.000000  -0.000283   0.000035  -0.000018
    24  H   -0.000000  -0.000001   0.000000   0.001131  -0.000415   0.000419
    25  N   -0.003486   0.004170  -0.001488   0.000000   0.000000   0.000000
    26  C   -0.000425   0.000413  -0.000609  -0.000000  -0.000000  -0.000000
    27  H    0.000196   0.000002  -0.000017  -0.000000  -0.000000  -0.000000
    28  H   -0.000254  -0.000039   0.000036   0.000000   0.000000   0.000000
    29  H   -0.001612   0.000226  -0.000299  -0.000000  -0.000000   0.000000
    30  C    0.414100   0.407525   0.404506   0.000000   0.000000  -0.000000
    31  H    0.537929  -0.017793  -0.030379  -0.000000  -0.000000  -0.000000
    32  H   -0.017793   0.517697  -0.022769   0.000000   0.000000  -0.000000
    33  H   -0.030379  -0.022769   0.538189   0.000000   0.000000   0.000000
    34  C   -0.000000   0.000000   0.000000   4.788441   0.409373   0.406793
    35  H   -0.000000   0.000000   0.000000   0.409373   0.590052  -0.027060
    36  H   -0.000000  -0.000000   0.000000   0.406793  -0.027060   0.535807
    37  H    0.000000   0.000000  -0.000000   0.408745  -0.049424  -0.021678
    38  N    0.000000  -0.000000  -0.000000   0.325381  -0.052129  -0.020585
    39  C   -0.000000  -0.000000   0.000000  -0.062633   0.001622  -0.014856
    40  H   -0.000000  -0.000000  -0.000000  -0.014907  -0.000313   0.003173
    41  H   -0.000000  -0.000000   0.000000   0.001658   0.003739  -0.000325
    42  H    0.000000  -0.000000  -0.000000   0.005788  -0.001154   0.000774
              37         38         39         40         41         42
     1  N   -0.000000   0.000000   0.000000   0.000000  -0.000000   0.000000
     2  N    0.000001   0.000000  -0.000000  -0.000000  -0.000000   0.000001
     3  C    0.000000   0.000000   0.000000   0.000000   0.000000  -0.000000
     4  C    0.000000  -0.000001  -0.000000   0.000000  -0.000000   0.000000
     5  C    0.000000  -0.000000  -0.000000  -0.000000  -0.000000   0.000000
     6  C   -0.000001   0.000000   0.000000  -0.000000   0.000000   0.000000
     7  C   -0.000000  -0.000025  -0.000001   0.000000   0.000000  -0.000002
     8  C    0.000000   0.000000   0.000000   0.000000  -0.000000  -0.000000
     9  C    0.000002   0.000000  -0.000000  -0.000000   0.000000  -0.000001
    10  H    0.000008  -0.000032  -0.000006  -0.000000  -0.000004   0.000025
    11  C    0.000002  -0.000000  -0.000000  -0.000000  -0.000000   0.000000
    12  H   -0.000000   0.000000   0.000000   0.000000   0.000000  -0.000000
    13  H    0.000005  -0.000006  -0.000000   0.000000  -0.000000   0.000003
    14  H   -0.000000   0.000000   0.000000  -0.000000   0.000000  -0.000000
    15  C    0.000031   0.000208   0.000007  -0.000000  -0.000114  -0.000051
    16  C   -0.000019   0.004294   0.000130   0.000014  -0.000539   0.000917
    17  C    0.000618   0.005055  -0.000261   0.000021  -0.000014   0.000008
    18  C   -0.000111  -0.059084  -0.011766   0.000871   0.001022   0.003173
    19  H   -0.000003  -0.000134  -0.000007  -0.000001   0.000064  -0.000017
    20  C    0.003551  -0.058237   0.005264  -0.000247   0.000943  -0.000205
    21  H   -0.000007  -0.000130   0.000013  -0.000000   0.000000   0.000000
    22  C   -0.011722   0.400086  -0.076909   0.006312   0.000287  -0.011740
    23  H   -0.000027  -0.007208   0.001269   0.000424  -0.000737  -0.004258
    24  H   -0.004277  -0.006888  -0.000262  -0.000015   0.000059  -0.000043
    25  N   -0.000000  -0.000000  -0.000000   0.000000   0.000000  -0.000000
    26  C    0.000000  -0.000000  -0.000000  -0.000000  -0.000000   0.000000
    27  H    0.000000   0.000000  -0.000000  -0.000000  -0.000000   0.000000
    28  H   -0.000000  -0.000000   0.000000   0.000000   0.000000  -0.000000
    29  H    0.000000   0.000000  -0.000000  -0.000000  -0.000000   0.000000
    30  C   -0.000000  -0.000000  -0.000000  -0.000000   0.000000  -0.000000
    31  H    0.000000   0.000000  -0.000000  -0.000000  -0.000000   0.000000
    32  H    0.000000  -0.000000  -0.000000  -0.000000  -0.000000  -0.000000
    33  H   -0.000000  -0.000000   0.000000  -0.000000   0.000000  -0.000000
    34  C    0.408745   0.325381  -0.062633  -0.014907   0.001658   0.005788
    35  H   -0.049424  -0.052129   0.001622  -0.000313   0.003739  -0.001154
    36  H   -0.021678  -0.020585  -0.014856   0.003173  -0.000325   0.000774
    37  H    0.572447  -0.034193   0.005783   0.000767  -0.001166   0.000492
    38  N   -0.034193   6.742712   0.325589  -0.020697  -0.052149  -0.033949
    39  C    0.005783   0.325589   4.788692   0.406963   0.409399   0.408568
    40  H    0.000767  -0.020697   0.406963   0.536037  -0.026969  -0.021854
    41  H   -0.001166  -0.052149   0.409399  -0.026969   0.589732  -0.049313
    42  H    0.000492  -0.033949   0.408568  -0.021854  -0.049313   0.572873
 Mulliken charges:
               1
     1  N   -0.193371
     2  N   -0.199490
     3  C   -0.132041
     4  C   -0.061863
     5  C    0.225884
     6  C    0.202357
     7  C   -0.060991
     8  C   -0.088084
     9  C   -0.141698
    10  H    0.124470
    11  C   -0.134173
    12  H    0.127081
    13  H    0.112852
    14  H    0.116077
    15  C   -0.082284
    16  C   -0.080719
    17  C   -0.049549
    18  C   -0.156520
    19  H    0.107680
    20  C   -0.156084
    21  H    0.131306
    22  C    0.243931
    23  H    0.130495
    24  H    0.129829
    25  N   -0.469733
    26  C   -0.175704
    27  H    0.144399
    28  H    0.147632
    29  H    0.147209
    30  C   -0.274411
    31  H    0.143507
    32  H    0.133547
    33  H    0.148802
    34  C   -0.185696
    35  H    0.124192
    36  H    0.130648
    37  H    0.130176
    38  N   -0.457879
    39  C   -0.186599
    40  H    0.130422
    41  H    0.124428
    42  H    0.129966
 Sum of Mulliken charges =  -0.00000
 Mulliken charges with hydrogens summed into heavy atoms:
               1
     1  N   -0.193371
     2  N   -0.199490
     3  C   -0.132041
     4  C   -0.061863
     5  C    0.225884
     6  C    0.202357
     7  C    0.063479
     8  C    0.038996
     9  C   -0.028846
    11  C   -0.018096
    15  C   -0.082284
    16  C    0.026961
    17  C    0.081757
    18  C   -0.026024
    20  C   -0.026255
    22  C    0.243931
    25  N   -0.469733
    26  C    0.263536
    30  C    0.151444
    34  C    0.199320
    38  N   -0.457879
    39  C    0.198217
 Electronic spatial extent (au):  <R**2>=           7550.7429
 Charge=             -0.0000 electrons
 Dipole moment (field-independent basis, Debye):
    X=             -0.3313    Y=              5.0911    Z=              4.3360  Tot=              6.6955
 Quadrupole moment (field-independent basis, Debye-Ang):
   XX=            -78.6056   YY=           -139.7799   ZZ=           -125.9476
   XY=              2.6562   XZ=            -10.8167   YZ=             -1.8739
 Traceless Quadrupole moment (field-independent basis, Debye-Ang):
   XX=             36.1721   YY=            -25.0022   ZZ=            -11.1699
   XY=              2.6562   XZ=            -10.8167   YZ=             -1.8739
 Octapole moment (field-independent basis, Debye-Ang**2):
  XXX=              4.6708  YYY=             67.6217  ZZZ=             21.1908  XYY=            -10.4642
  XXY=             38.0905  XXZ=             59.3532  XZZ=             15.7466  YZZ=              2.3650
  YYZ=             16.8045  XYZ=             14.5037
 Hexadecapole moment (field-independent basis, Debye-Ang**3):
 XXXX=          -5821.9211 YYYY=          -2173.9797 ZZZZ=           -887.8953 XXXY=            157.2723
 XXXZ=           -156.6662 YYYX=            -18.8339 YYYZ=            -57.8121 ZZZX=            -33.8341
 ZZZY=             26.7642 XXYY=          -1494.9211 XXZZ=          -1276.9576 YYZZ=           -506.0371
 XXYZ=             65.0068 YYXZ=            -36.5955 ZZXY=             28.4317
 N-N= 1.735265815129D+03 E-N=-5.602827259658D+03  KE= 9.135312419156D+02
 Leave Link  601 at Thu Feb 13 13:33:50 2025, MaxMem= 25501368320 cpu:               7.9 elap:               0.3
 (Enter /share/Apps/gaussian/g16/l9999.exe)
 Electronic transition elements 
                 1             2             3             4             5 
      1  -0.916537D+03 -0.916491D+03 -0.916480D+03 -0.916474D+03 -0.916469D+03
      2   0.145602D+01  0.211919D+01 -0.873511D-01 -0.605543D+00 -0.204318D+00
      3  -0.208090D+00 -0.776732D-01  0.766544D+00  0.335875D+00 -0.101721D+00
      4   0.204556D+00  0.126277D+00  0.277741D+00  0.688420D+00  0.201344D+00
      5  -0.143059D+00 -0.301279D+00  0.130071D-01  0.100694D+00  0.330137D-01
      6   0.254180D-01  0.105848D-01 -0.113717D+00 -0.567773D-01  0.123129D-01
      7  -0.317572D-01 -0.157508D-01 -0.402091D-01 -0.119262D+00 -0.330939D-01
      8   0.106094D+01 -0.655418D+00  0.169188D+00  0.384609D+00 -0.622452D-01
      9   0.449684D-01  0.787806D+00 -0.172591D-01  0.788075D-01 -0.231917D+00
     10  -0.964213D+00 -0.188520D+01  0.271474D+00  0.242194D+00 -0.346075D+00
     11  -0.134608D+00 -0.733700D+00 -0.129352D+01 -0.114173D+00 -0.111981D+01
     12  -0.894432D-02  0.401107D+00  0.168429D+00  0.125095D+00  0.776490D-01
     13   0.735957D-01 -0.164915D+00 -0.117852D-01 -0.327128D-01  0.427156D-01
     14   0.107038D-01 -0.115972D+00 -0.754044D-02 -0.204236D+00  0.886838D-01
     15  -0.726457D-01 -0.366645D+00  0.107689D+00 -0.346463D+00  0.340786D+00
     16   0.475777D-01 -0.311087D+00  0.250999D+00  0.167206D+00 -0.100284D+00
                 6             7             8             9            10 
      1  -0.916456D+03 -0.916448D+03 -0.916436D+03 -0.916432D+03 -0.916429D+03
      2  -0.521859D+00 -0.486538D+00 -0.712748D+00  0.775684D+00 -0.367310D+00
      3  -0.797437D+00  0.322994D+00 -0.359894D+00  0.987171D+00 -0.614459D-01
      4   0.412128D+00  0.564759D-01  0.401552D+00  0.165195D+00 -0.344257D+00
      5   0.941766D-01  0.924337D-01  0.145783D+00 -0.160702D+00  0.770744D-01
      6   0.138352D+00 -0.583690D-01  0.707607D-01 -0.201912D+00  0.151306D-01
      7  -0.787924D-01 -0.109647D-01 -0.839697D-01 -0.347726D-01  0.660980D-01
      8  -0.162022D+00 -0.112059D+00  0.388267D-01  0.216347D+00  0.243879D+00
      9  -0.266998D+00 -0.107258D+00  0.314193D+00  0.923937D+00  0.880123D-01
     10  -0.121114D+01  0.254885D+00 -0.434902D+00  0.434602D+00  0.564563D+00
     11  -0.425284D+00 -0.331037D+00  0.622079D+00 -0.377083D+00  0.249484D+01
     12   0.805284D-01 -0.243518D+00  0.168198D+00  0.644134D-01 -0.479831D+00
     13   0.942626D-01  0.311073D-01  0.840583D-01 -0.159337D+00  0.884459D-01
     14  -0.559541D+00  0.313350D+00 -0.186833D+00 -0.115761D+00  0.517289D+00
     15   0.171473D+00  0.159080D+00 -0.185221D-01 -0.716880D+00 -0.794156D-02
     16  -0.725278D-01  0.588679D-01  0.732912D-01  0.367115D+00  0.768302D-01
                11            12            13            14            15 
      1  -0.916427D+03 -0.916421D+03 -0.916412D+03 -0.916412D+03 -0.916410D+03
      2  -0.551846D-01 -0.255225D+00  0.282811D+00  0.220288D+00 -0.237176D+00
      3   0.709632D+00 -0.107130D+01 -0.499108D-02 -0.373210D+00 -0.141715D+00
      4   0.270170D+00  0.294523D+00 -0.100831D+00  0.115921D+00  0.330232D+00
      5   0.142937D-01  0.498656D-01 -0.645874D-01 -0.459324D-01  0.545959D-01
      6  -0.151624D+00  0.231043D+00  0.314568D-02  0.772256D-01  0.308835D-01
      7  -0.622013D-01 -0.603525D-01  0.213857D-01 -0.235830D-01 -0.715710D-01
      8  -0.634192D-01  0.316850D+00 -0.250506D+00 -0.185841D+00  0.314451D+00
      9   0.643452D-01 -0.511605D+00 -0.114051D+00  0.349697D+00 -0.241349D+00
     10   0.296318D+00 -0.767533D+00 -0.626916D+00  0.419337D+00  0.390962D+00
     11   0.189329D+00 -0.112463D+01 -0.249333D+00 -0.571447D+00 -0.139526D+01
     12  -0.491348D+00  0.956574D+00 -0.159973D+00  0.956697D-01  0.273627D+00
     13  -0.128636D-01 -0.850239D-01  0.961882D-02 -0.708485D-01  0.114315D-01
     14   0.382694D+00 -0.104359D+01 -0.207931D-01  0.573677D+00 -0.102190D+01
     15  -0.575049D+00  0.391116D+00  0.215724D-01 -0.326342D+00 -0.218193D+00
     16   0.129083D+00 -0.324799D+00 -0.236888D+00  0.449843D-01  0.689092D-01
                16            17            18            19            20 
      1  -0.916409D+03 -0.916406D+03 -0.916399D+03 -0.916399D+03 -0.916393D+03
      2   0.151953D+00  0.434771D-01  0.962598D+00 -0.995932D+00 -0.169165D+00
      3   0.696658D+00  0.478605D-01 -0.408467D-01 -0.658305D-01  0.908311D+00
      4  -0.259171D+00 -0.356380D-01 -0.269081D-01  0.315978D+00 -0.653270D+00
      5  -0.316064D-01 -0.106530D-01 -0.223762D+00  0.236118D+00  0.384549D-01
      6  -0.156932D+00 -0.822983D-02  0.561916D-02  0.145015D-01 -0.216825D+00
      7   0.605203D-01  0.459296D-02  0.114193D-01 -0.722989D-01  0.157208D+00
      8  -0.372286D+00  0.326459D+00  0.116508D-01 -0.467005D+00 -0.385398D+00
      9  -0.270061D+00 -0.145239D+00  0.268791D+00 -0.546105D+00  0.263303D+00
     10  -0.448868D-02  0.171790D+00  0.193985D+00  0.326760D+00  0.173584D+01
     11  -0.148215D+00 -0.195583D+00  0.292984D+00 -0.533043D+00  0.249932D+01
     12  -0.697077D+00  0.615492D-02 -0.116871D-01 -0.244616D+00 -0.145220D+01
     13   0.248793D-01 -0.780615D-01 -0.116544D+00  0.218129D+00 -0.524343D-01
     14   0.655068D+00 -0.125973D+00 -0.157490D+00  0.803537D+00  0.101661D+01
     15   0.652864D-02 -0.169650D-01 -0.382976D+00  0.242801D+00 -0.121225D+00
     16  -0.283632D-01 -0.312021D-01  0.479292D-01 -0.359984D+00  0.559940D+00
 Unable to Open any file for archive entry.
 1\1\GINC-SOL-E614\SP\RCAM-B3LYP TD-FC\6-311G(d,p)\C18H20N4\CRF524\13-F
 eb-2025\0\\#p td(nstates=20, singlets) cam-b3lyp/6-311g(d,p) scrf=(sol
 vent=acetonitrile)\\nof2-pai-me_anti-cis_tddft\\0,1\N,0,-1.314716,-2.2
 49658,-0.644413\N,0,-0.10281,-2.49516,-0.820557\C,0,-1.868591,-1.01571
 8,-0.272993\C,0,-1.555044,0.365103,-0.58003\C,0,-3.0907,-1.019303,0.37
 8741\C,0,-2.617866,1.124391,-0.045342\C,0,-0.558187,1.035149,-1.298521
 \C,0,-2.690955,2.50844,-0.171369\C,0,-0.62926,2.409836,-1.433543\H,0,0
 .263118,0.492198,-1.744245\C,0,-1.680387,3.143389,-0.8694\H,0,-3.51650
 9,3.068697,0.249249\H,0,0.144541,2.929817,-1.985545\H,0,-1.707949,4.21
 966,-0.989013\C,0,0.954176,-1.620387,-0.449365\C,0,2.085576,-1.614668,
 -1.26146\C,0,1.010754,-0.929111,0.760161\C,0,3.207286,-0.879748,-0.931
 288\H,0,2.071686,-2.2005,-2.173254\C,0,2.141475,-0.223816,1.123172\H,0
 ,0.169758,-0.959599,1.440691\C,0,3.263296,-0.147642,0.272285\H,0,4.053
 12,-0.893703,-1.602836\H,0,2.149801,0.276981,2.0802\N,0,-3.518563,0.26
 4955,0.554093\C,0,-4.736363,0.694206,1.213558\H,0,-4.511054,1.470886,1
 .945109\H,0,-5.454582,1.085466,0.49008\H,0,-5.185491,-0.147054,1.73377
 3\C,0,-3.86211,-2.198097,0.851661\H,0,-4.900153,-2.155087,0.515552\H,0
 ,-3.398912,-3.099356,0.455773\H,0,-3.866586,-2.267597,1.94266\C,0,4.46
 7684,1.179539,1.931689\H,0,4.484493,0.420736,2.724325\H,0,5.385802,1.7
 5876,1.994951\H,0,3.634849,1.858539,2.129552\N,0,4.367193,0.598073,0.6
 07186\C,0,5.571289,0.498546,-0.194452\H,0,6.316736,1.184991,0.199877\H
 ,0,5.997875,-0.512542,-0.189607\H,0,5.379294,0.780579,-1.232477\\Versi
 on=ES64L-G16RevC.01\State=1-A\HF=-916.636625\RMSD=9.108e-09\PG=C01 [X(
 C18H20N4)]\\@
 The archive entry for this job was punched.


 WHAT, THEN, IS TIME?  IF NO ONE ASKS ME, I KNOW WHAT IT IS.
 IF I WISH TO EXPLAIN WHAT IT IS TO HIM WHO ASKS ME, I DO NOT KNOW.
                                   -- ST. AUGUSTINE (FIFTH CENTURY)
 Job cpu time:       0 days  3 hours 18 minutes 36.2 seconds.
 Elapsed time:       0 days  0 hours  5 minutes 36.7 seconds.
 File lengths (MBytes):  RWF=   3064 Int=      0 D2E=      0 Chk=    304 Scr=      8
 Normal termination of Gaussian 16 at Thu Feb 13 13:33:50 2025.
