 Entering Gaussian System, Link 0=g16
 Initial command:
 /share/Apps/gaussian/g16/l1.exe "/share/ceph/scratch/crf524/12289148/Gau-3325337.inp" -scrdir="/share/ceph/scratch/crf524/12289148/"
 Entering Link 1 = /share/Apps/gaussian/g16/l1.exe PID=   3325338.
  
 Copyright (c) 1988-2019, Gaussian, Inc.  All Rights Reserved.
  
 This is part of the Gaussian(R) 16 program.  It is based on
 the Gaussian(R) 09 system (copyright 2009, Gaussian, Inc.),
 the Gaussian(R) 03 system (copyright 2003, Gaussian, Inc.),
 the Gaussian(R) 98 system (copyright 1998, Gaussian, Inc.),
 the Gaussian(R) 94 system (copyright 1995, Gaussian, Inc.),
 the Gaussian 92(TM) system (copyright 1992, Gaussian, Inc.),
 the Gaussian 90(TM) system (copyright 1990, Gaussian, Inc.),
 the Gaussian 88(TM) system (copyright 1988, Gaussian, Inc.),
 the Gaussian 86(TM) system (copyright 1986, Carnegie Mellon
 University), and the Gaussian 82(TM) system (copyright 1983,
 Carnegie Mellon University). Gaussian is a federally registered
 trademark of Gaussian, Inc.
  
 This software contains proprietary and confidential information,
 including trade secrets, belonging to Gaussian, Inc.
  
 This software is provided under written license and may be
 used, copied, transmitted, or stored only in accord with that
 written license.
  
 The following legend is applicable only to US Government
 contracts under FAR:
  
                    RESTRICTED RIGHTS LEGEND
  
 Use, reproduction and disclosure by the US Government is
 subject to restrictions as set forth in subparagraphs (a)
 and (c) of the Commercial Computer Software - Restricted
 Rights clause in FAR 52.227-19.
  
 Gaussian, Inc.
 340 Quinnipiac St., Bldg. 40, Wallingford CT 06492
  
  
 ---------------------------------------------------------------
 Warning -- This program may not be used in any manner that
 competes with the business of Gaussian, Inc. or will provide
 assistance to any competitor of Gaussian, Inc.  The licensee
 of this program is prohibited from giving any competitor of
 Gaussian, Inc. access to this program.  By using this program,
 the user acknowledges that Gaussian, Inc. is engaged in the
 business of creating and licensing software in the field of
 computational chemistry and represents and warrants to the
 licensee that it is not a competitor of Gaussian, Inc. and that
 it will not use this program in any manner prohibited above.
 ---------------------------------------------------------------
  

 Cite this work as:
 Gaussian 16, Revision C.01,
 M. J. Frisch, G. W. Trucks, H. B. Schlegel, G. E. Scuseria, 
 M. A. Robb, J. R. Cheeseman, G. Scalmani, V. Barone, 
 G. A. Petersson, H. Nakatsuji, X. Li, M. Caricato, A. V. Marenich, 
 J. Bloino, B. G. Janesko, R. Gomperts, B. Mennucci, H. P. Hratchian, 
 J. V. Ortiz, A. F. Izmaylov, J. L. Sonnenberg, D. Williams-Young, 
 F. Ding, F. Lipparini, F. Egidi, J. Goings, B. Peng, A. Petrone, 
 T. Henderson, D. Ranasinghe, V. G. Zakrzewski, J. Gao, N. Rega, 
 G. Zheng, W. Liang, M. Hada, M. Ehara, K. Toyota, R. Fukuda, 
 J. Hasegawa, M. Ishida, T. Nakajima, Y. Honda, O. Kitao, H. Nakai, 
 T. Vreven, K. Throssell, J. A. Montgomery, Jr., J. E. Peralta, 
 F. Ogliaro, M. J. Bearpark, J. J. Heyd, E. N. Brothers, K. N. Kudin, 
 V. N. Staroverov, T. A. Keith, R. Kobayashi, J. Normand, 
 K. Raghavachari, A. P. Rendell, J. C. Burant, S. S. Iyengar, 
 J. Tomasi, M. Cossi, J. M. Millam, M. Klene, C. Adamo, R. Cammi, 
 J. W. Ochterski, R. L. Martin, K. Morokuma, O. Farkas, 
 J. B. Foresman, and D. J. Fox, Gaussian, Inc., Wallingford CT, 2019.
 
 ******************************************
 Gaussian 16:  ES64L-G16RevC.01  3-Jul-2019
                13-Feb-2025 
 ******************************************
 %nprocshared=36
 Will use up to   36 processors via shared memory.
 %mem=190GB
 %chk=anti-trans.chk
 ----------------------------------------------------------------------
 #p td(nstates=20, singlets) cam-b3lyp/6-311g(d,p) scrf=(solvent=aceton
 itrile)
 ----------------------------------------------------------------------
 1/38=1,172=1/1;
 2/12=2,17=6,18=5,40=1/2;
 3/5=4,6=6,7=101,11=9,25=1,30=1,70=2201,72=2,74=-40/1,2,3,8;
 4//1;
 5/5=2,38=5,53=2/2;
 8/6=1,10=2,108=20/1;
 9/41=20,42=1,48=1,70=2/14;
 6/7=2,8=2,9=2,10=2/1;
 99/5=1,9=1/99;
 Leave Link    1 at Thu Feb 13 13:32:42 2025, MaxMem= 25501368320 cpu:               4.1 elap:               0.1
 (Enter /share/Apps/gaussian/g16/l101.exe)
 ----------------------------
 nme2-pai-me_anti-trans_tddft
 ----------------------------
 Symbolic Z-matrix:
 Charge =  0 Multiplicity = 1
 N                    -0.48892   0.67494   0.01525 
 N                     0.18439  -0.38323   0.01754 
 C                    -1.85969   0.51852   0.00702 
 C                    -2.69228  -0.6619   -0.00424 
 C                    -2.70066   1.61965   0.00807 
 C                    -4.0209   -0.19143  -0.00956 
 C                    -2.46419  -2.04096  -0.0109 
 C                    -5.11638  -1.04822  -0.02077 
 C                    -3.55077  -2.89879  -0.0223 
 H                    -1.45233  -2.4181   -0.00708 
 C                    -4.86291  -2.40922  -0.02705 
 H                    -6.13069  -0.66917  -0.02444 
 H                    -3.38517  -3.96961  -0.02755 
 H                    -5.69316  -3.10509  -0.03582 
 C                     1.58506  -0.20753   0.02314 
 C                     2.36068  -1.36391   0.04604 
 C                     2.24465   1.02405  -0.00027 
 C                     3.74145  -1.31114   0.05216 
 H                     1.85676  -2.32344   0.05641 
 C                     3.62105   1.09444   0.00507 
 H                     1.65873   1.93287  -0.02705 
 C                     4.41583  -0.07396   0.04105 
 H                     4.29797  -2.23678   0.06479 
 H                     4.08976   2.06758  -0.02031 
 N                    -3.99742   1.19316  -0.002 
 C                    -5.18782   2.02071  -0.00349 
 H                    -5.78805   1.82304  -0.8932 
 H                    -5.79195   1.82169   0.88334 
 H                    -4.90424   3.06907  -0.00228 
 C                    -2.32525   3.05755   0.01867 
 H                    -2.71869   3.56637   0.90203 
 H                    -1.24124   3.14048   0.02561 
 H                    -2.70829   3.57692  -0.86312 
 C                     6.57137  -1.21694  -0.03611 
 H                     6.34511  -1.90772   0.78047 
 H                     6.40316  -1.744    -0.98328 
 H                     7.62649  -0.96304   0.02908 
 N                     5.78476  -0.00349   0.06686 
 C                     6.44842   1.27604  -0.09224 
 H                     7.52328   1.12866  -0.02259 
 H                     6.22871   1.74289  -1.06007 
 H                     6.15829   1.97601   0.6957 
 
 ITRead=  0  0  0  0  0  0  0  0  0  0  0  0  0  0  0  0  0  0  0  0
 ITRead=  0  0  0  0  0  0  0  0  0  0  0  0  0  0  0  0  0  0  0  0
 ITRead=  0  0
 MicOpt= -1 -1 -1 -1 -1 -1 -1 -1 -1 -1 -1 -1 -1 -1 -1 -1 -1 -1 -1 -1
 MicOpt= -1 -1 -1 -1 -1 -1 -1 -1 -1 -1 -1 -1 -1 -1 -1 -1 -1 -1 -1 -1
 MicOpt= -1 -1
 NAtoms=     42 NQM=       42 NQMF=       0 NMMI=      0 NMMIF=      0
                NMic=       0 NMicF=      0.
                    Isotopes and Nuclear Properties:
 (Nuclear quadrupole moments (NQMom) in fm**2, nuclear magnetic moments (NMagM)
  in nuclear magnetons)

  Atom         1           2           3           4           5           6           7           8           9          10
 IAtWgt=          14          14          12          12          12          12          12          12          12           1
 AtmWgt=  14.0030740  14.0030740  12.0000000  12.0000000  12.0000000  12.0000000  12.0000000  12.0000000  12.0000000   1.0078250
 NucSpn=           2           2           0           0           0           0           0           0           0           1
 AtZEff=  -0.0000000  -0.0000000  -0.0000000  -0.0000000  -0.0000000  -0.0000000  -0.0000000  -0.0000000  -0.0000000  -0.0000000
 NQMom=    2.0440000   2.0440000   0.0000000   0.0000000   0.0000000   0.0000000   0.0000000   0.0000000   0.0000000   0.0000000
 NMagM=    0.4037610   0.4037610   0.0000000   0.0000000   0.0000000   0.0000000   0.0000000   0.0000000   0.0000000   2.7928460
 AtZNuc=   7.0000000   7.0000000   6.0000000   6.0000000   6.0000000   6.0000000   6.0000000   6.0000000   6.0000000   1.0000000

  Atom        11          12          13          14          15          16          17          18          19          20
 IAtWgt=          12           1           1           1          12          12          12          12           1          12
 AtmWgt=  12.0000000   1.0078250   1.0078250   1.0078250  12.0000000  12.0000000  12.0000000  12.0000000   1.0078250  12.0000000
 NucSpn=           0           1           1           1           0           0           0           0           1           0
 AtZEff=  -0.0000000  -0.0000000  -0.0000000  -0.0000000  -0.0000000  -0.0000000  -0.0000000  -0.0000000  -0.0000000  -0.0000000
 NQMom=    0.0000000   0.0000000   0.0000000   0.0000000   0.0000000   0.0000000   0.0000000   0.0000000   0.0000000   0.0000000
 NMagM=    0.0000000   2.7928460   2.7928460   2.7928460   0.0000000   0.0000000   0.0000000   0.0000000   2.7928460   0.0000000
 AtZNuc=   6.0000000   1.0000000   1.0000000   1.0000000   6.0000000   6.0000000   6.0000000   6.0000000   1.0000000   6.0000000

  Atom        21          22          23          24          25          26          27          28          29          30
 IAtWgt=           1          12           1           1          14          12           1           1           1          12
 AtmWgt=   1.0078250  12.0000000   1.0078250   1.0078250  14.0030740  12.0000000   1.0078250   1.0078250   1.0078250  12.0000000
 NucSpn=           1           0           1           1           2           0           1           1           1           0
 AtZEff=  -0.0000000  -0.0000000  -0.0000000  -0.0000000  -0.0000000  -0.0000000  -0.0000000  -0.0000000  -0.0000000  -0.0000000
 NQMom=    0.0000000   0.0000000   0.0000000   0.0000000   2.0440000   0.0000000   0.0000000   0.0000000   0.0000000   0.0000000
 NMagM=    2.7928460   0.0000000   2.7928460   2.7928460   0.4037610   0.0000000   2.7928460   2.7928460   2.7928460   0.0000000
 AtZNuc=   1.0000000   6.0000000   1.0000000   1.0000000   7.0000000   6.0000000   1.0000000   1.0000000   1.0000000   6.0000000

  Atom        31          32          33          34          35          36          37          38          39          40
 IAtWgt=           1           1           1          12           1           1           1          14          12           1
 AtmWgt=   1.0078250   1.0078250   1.0078250  12.0000000   1.0078250   1.0078250   1.0078250  14.0030740  12.0000000   1.0078250
 NucSpn=           1           1           1           0           1           1           1           2           0           1
 AtZEff=  -0.0000000  -0.0000000  -0.0000000  -0.0000000  -0.0000000  -0.0000000  -0.0000000  -0.0000000  -0.0000000  -0.0000000
 NQMom=    0.0000000   0.0000000   0.0000000   0.0000000   0.0000000   0.0000000   0.0000000   2.0440000   0.0000000   0.0000000
 NMagM=    2.7928460   2.7928460   2.7928460   0.0000000   2.7928460   2.7928460   2.7928460   0.4037610   0.0000000   2.7928460
 AtZNuc=   1.0000000   1.0000000   1.0000000   6.0000000   1.0000000   1.0000000   1.0000000   7.0000000   6.0000000   1.0000000

  Atom        41          42
 IAtWgt=           1           1
 AtmWgt=   1.0078250   1.0078250
 NucSpn=           1           1
 AtZEff=  -0.0000000  -0.0000000
 NQMom=    0.0000000   0.0000000
 NMagM=    2.7928460   2.7928460
 AtZNuc=   1.0000000   1.0000000
 Leave Link  101 at Thu Feb 13 13:32:42 2025, MaxMem= 25501368320 cpu:               3.9 elap:               0.1
 (Enter /share/Apps/gaussian/g16/l202.exe)
                          Input orientation:                          
 ---------------------------------------------------------------------
 Center     Atomic      Atomic             Coordinates (Angstroms)
 Number     Number       Type             X           Y           Z
 ---------------------------------------------------------------------
      1          7           0       -0.488921    0.674938    0.015249
      2          7           0        0.184389   -0.383225    0.017543
      3          6           0       -1.859685    0.518515    0.007024
      4          6           0       -2.692279   -0.661898   -0.004240
      5          6           0       -2.700663    1.619647    0.008066
      6          6           0       -4.020901   -0.191432   -0.009557
      7          6           0       -2.464190   -2.040957   -0.010902
      8          6           0       -5.116383   -1.048217   -0.020766
      9          6           0       -3.550769   -2.898790   -0.022299
     10          1           0       -1.452328   -2.418101   -0.007079
     11          6           0       -4.862908   -2.409217   -0.027049
     12          1           0       -6.130690   -0.669168   -0.024435
     13          1           0       -3.385170   -3.969614   -0.027552
     14          1           0       -5.693161   -3.105090   -0.035818
     15          6           0        1.585057   -0.207525    0.023136
     16          6           0        2.360679   -1.363914    0.046036
     17          6           0        2.244652    1.024046   -0.000273
     18          6           0        3.741445   -1.311138    0.052163
     19          1           0        1.856764   -2.323435    0.056407
     20          6           0        3.621049    1.094435    0.005066
     21          1           0        1.658732    1.932871   -0.027054
     22          6           0        4.415831   -0.073959    0.041053
     23          1           0        4.297966   -2.236781    0.064792
     24          1           0        4.089758    2.067579   -0.020306
     25          7           0       -3.997423    1.193160   -0.001999
     26          6           0       -5.187815    2.020707   -0.003486
     27          1           0       -5.788051    1.823041   -0.893197
     28          1           0       -5.791952    1.821690    0.883340
     29          1           0       -4.904242    3.069067   -0.002280
     30          6           0       -2.325250    3.057546    0.018665
     31          1           0       -2.718691    3.566373    0.902025
     32          1           0       -1.241236    3.140484    0.025612
     33          1           0       -2.708292    3.576921   -0.863123
     34          6           0        6.571366   -1.216943   -0.036108
     35          1           0        6.345107   -1.907717    0.780465
     36          1           0        6.403157   -1.744004   -0.983275
     37          1           0        7.626488   -0.963040    0.029084
     38          7           0        5.784758   -0.003485    0.066864
     39          6           0        6.448418    1.276037   -0.092237
     40          1           0        7.523283    1.128656   -0.022587
     41          1           0        6.228713    1.742891   -1.060065
     42          1           0        6.158294    1.976014    0.695698
 ---------------------------------------------------------------------
                    Distance matrix (angstroms):
                    1          2          3          4          5
     1  N    0.000000
     2  N    1.254217   0.000000
     3  C    1.379685   2.234163   0.000000
     4  C    2.577265   2.890217   1.444546   0.000000
     5  C    2.405063   3.512138   1.385546   2.281594   0.000000
     6  C    3.636770   4.209749   2.274897   1.409469   2.241282
     7  C    3.358341   3.124717   2.629951   1.397810   3.668283
     8  C    4.938012   5.342459   3.614070   2.454750   3.599171
     9  C    4.706151   4.503450   3.812951   2.396042   4.597812
    10  H    3.239682   2.611545   2.964768   2.149822   4.226343
    11  C    5.352155   5.438919   4.194297   2.786624   4.572557
    12  H    5.799806   6.321689   4.433178   3.438478   4.123690
    13  H    5.473751   5.060234   4.740422   3.379590   5.631133
    14  H    6.432366   6.477422   5.275214   3.869816   5.592862
    15  C    2.253927   1.411656   3.520460   4.301489   4.658989
    16  C    3.504010   2.387216   4.621313   5.101739   5.875395
    17  C    2.755819   2.495078   4.135359   5.216868   4.981059
    18  C    4.673527   3.676257   5.892565   6.466645   7.077584
    19  H    3.807121   2.561789   4.678794   4.843364   6.026639
    20  C    4.131336   3.740891   5.510910   6.553083   6.343493
    21  H    2.489297   2.745902   3.792205   5.066028   4.370774
    22  C    4.961664   4.242794   6.303514   7.132528   7.315318
    23  H    5.603111   4.512141   6.746233   7.165790   7.990999
    24  H    4.785918   4.610833   6.147863   7.310700   6.805238
    25  N    3.546609   4.469108   2.241685   2.268181   1.365130
    26  C    4.887847   5.885568   3.651457   3.663887   2.519307
    27  H    5.497653   6.431726   4.236065   4.068043   3.222671
    28  H    5.494612   6.428678   4.234255   4.069887   3.219160
    29  H    5.022671   6.149218   3.971741   4.337382   2.637553
    30  C    3.008145   4.258778   2.581388   3.737579   1.486136
    31  H    3.757478   4.980914   3.290647   4.324383   2.142249
    32  H    2.577790   3.801184   2.693983   4.069954   2.107885
    33  H    3.757479   4.982563   3.291069   4.324988   2.142417
    34  C    7.309549   6.441385   8.607921   9.280313   9.696325
    35  H    7.345720   6.392227   8.590892   9.156537   9.739859
    36  H    7.372182   6.444101   8.624050   9.211754   9.755842
    37  H    8.279072   7.464660   9.601196  10.323214  10.645222
    38  N    6.310465   5.613445   7.662478   8.502865   8.639467
    39  C    6.964162   6.480992   8.343157   9.344286   9.156081
    40  H    8.025130   7.493114   9.402831  10.371313  10.235775
    41  H    6.886467   6.497343   8.249846   9.299563   8.993878
    42  H    6.807443   6.458595   8.178421   9.261811   8.892747
                    6          7          8          9         10
     6  C    0.000000
     7  C    2.417456   0.000000
     8  C    1.390786   2.831918   0.000000
     9  C    2.747904   1.384435   2.423999   0.000000
    10  H    3.399357   1.079869   3.911786   2.152847   0.000000
    11  C    2.372309   2.426875   1.384417   1.400505   3.410650
    12  H    2.163253   3.914743   1.082825   3.409870   4.994611
    13  H    3.831336   2.137335   3.395836   1.083566   2.478606
    14  H    3.359546   3.399890   2.136264   2.152344   4.296213
    15  C    5.606076   4.445113   6.754109   5.798421   3.756763
    16  C    6.488634   4.872473   7.484022   6.107842   3.956407
    17  C    6.382368   5.618501   7.647191   6.998288   5.051345
    18  C    7.842931   6.248721   8.862029   7.463415   5.310758
    19  H    6.252738   4.330701   7.089211   5.438625   3.311055
    20  C    7.749391   6.845515   8.996352   8.208628   6.170673
    21  H    6.063926   5.726260   7.401967   7.105200   5.348836
    22  C    8.437702   7.155870   9.582072   8.452834   6.319225
    23  H    8.566944   6.765414   9.489466   7.877086   5.753601
    24  H    8.419385   7.735269   9.719116   9.112765   7.129952
    25  N    1.384812   3.579161   2.505233   4.116305   4.418002
    26  C    2.501057   4.890327   3.069804   5.184759   5.801456
    27  H    2.821656   5.172715   3.075125   5.297130   6.129517
    28  H    2.826048   5.176264   3.083856   5.303397   6.131966
    29  H    3.378046   5.662709   4.122787   6.119445   6.482650
    30  C    3.664954   5.100481   4.964803   6.081243   5.544850
    31  H    4.080175   5.686858   5.281563   6.583697   6.184179
    32  H    4.339290   5.323935   5.706499   6.465993   5.562688
    33  H    4.080686   5.687391   5.282080   6.584192   6.184703
    34  C   10.641828   9.073087  11.688977  10.260917   8.113155
    35  H   10.536787   8.845775  11.521565   9.977726   7.853707
    36  H   10.583931   8.925443  11.580602  10.066660   7.944559
    37  H   11.672983  10.148167  12.743253  11.343758   9.194749
    38  N    9.807758   8.497204  10.951439   9.774600   7.629630
    39  C   10.571989   9.510186  11.796266  10.835950   8.722138
    40  H   11.619423  10.478368  12.825753  11.783673   9.650975
    41  H   10.483309   9.538596  11.729520  10.874761   8.798922
    42  H   10.431262   9.538478  11.695197  10.887844   8.816105
                   11         12         13         14         15
    11  C    0.000000
    12  H    2.152916   0.000000
    13  H    2.149081   4.293115   0.000000
    14  H    1.083345   2.474930   2.464608   0.000000
    15  C    6.813679   7.729691   6.233702   7.834017   0.000000
    16  C    7.299192   8.520034   6.309506   8.240311   1.392605
    17  C    7.893378   8.544818   7.525442   8.947620   1.397276
    18  C    8.674500   9.893283   7.606740   9.604051   2.422563
    19  H    6.720738   8.157362   5.494982   7.590840   2.133543
    20  C    9.179005   9.909974   8.644811  10.217250   2.416752
    21  H    7.834891   8.212534   7.764037   8.912433   2.142252
    22  C    9.568337  10.563506   8.719888  10.553927   2.833980
    23  H    9.162957  10.546195   7.876663  10.029292   3.388140
    24  H   10.009594  10.580518   9.608449  11.066266   3.384008
    25  N    3.704971   2.831889   5.199014   4.620782   5.755574
    26  C    4.441885   2.850417   6.255722   5.150749   7.130044
    27  H    4.417930   2.661438   6.330721   5.003057   7.702310
    28  H    4.426342   2.672671   6.337312   5.012761   7.699216
    29  H    5.478496   3.934344   7.200781   6.224446   7.269643
    30  C    6.027213   5.326502   7.106796   7.023096   5.094233
    31  H    6.416270   5.517234   7.622297   7.364471   5.791114
    32  H    6.627101   6.198606   7.426491   7.670111   4.381450
    33  H    6.416793   5.517742   7.622764   7.364995   5.791402
    34  C   11.496270  12.713867  10.330047  12.409018   5.087800
    35  H   11.248252  12.562937   9.979108  12.125177   5.110996
    36  H   11.326125  12.616337  10.083556  12.209469   5.156328
    37  H   12.572971  13.760420  11.414872  13.490947   6.088491
    38  N   10.916463  11.934378   9.991330  11.890043   4.204882
    39  C   11.896699  12.728801  11.145425  12.907959   5.085917
    40  H   12.881549  13.771825  12.041043  13.878010   6.086871
    41  H   11.888279  12.635086  11.230563  12.910580   5.151795
    42  H   11.883581  12.591057  11.267266  12.915484   5.112209
                   16         17         18         19         20
    16  C    0.000000
    17  C    2.391226   0.000000
    18  C    1.381788   2.774207   0.000000
    19  H    1.083844   3.370356   2.139342   0.000000
    20  C    2.762913   1.378206   2.409044   3.846709   0.000000
    21  H    3.371478   1.081657   3.855848   4.261728   2.134173
    22  C    2.426450   2.433381   1.409089   3.407228   1.413548
    23  H    2.124930   3.854001   1.080134   2.442754   3.399821
    24  H    3.843079   2.119853   3.397396   4.926779   1.080436
    25  N    6.853203   6.244366   8.134158   6.829448   7.619115
    26  C    8.272719   7.498994   9.530791   8.276548   8.857434
    27  H    8.800036   8.121578  10.076114   8.748612   9.479921
    28  H    8.792869   8.124285  10.069316   8.738921   9.481817
    29  H    8.510742   7.435644   9.692113   8.648336   8.750989
    30  C    6.442669   5.001948   7.476049   6.815102   6.261985
    31  H    7.130249   5.649101   8.139148   7.505977   6.863477
    32  H    5.767479   4.078161   6.681673   6.281159   5.275278
    33  H    7.136728   5.638558   8.144322   7.516613   6.853980
    34  C    4.214052   4.872758   2.832864   4.843589   3.748137
    35  H    4.087881   5.100835   2.768643   4.565337   4.127306
    36  H    4.188744   5.091322   2.888636   4.699614   4.095568
    37  H    5.281073   5.737032   3.900675   5.927996   4.503035
    38  N    3.684497   3.686825   2.425964   4.561953   2.427114
    39  C    4.868066   4.212316   3.747269   5.836230   2.834866
    40  H    5.733245   5.279715   4.501164   6.635707   3.902482
    41  H    5.083049   4.184811   4.092755   6.074163   2.890486
    42  H    5.098927   4.087446   4.130456   6.115318   2.773403
                   21         22         23         24         25
    21  H    0.000000
    22  C    3.410806   0.000000
    23  H    4.935584   2.166161   0.000000
    24  H    2.434765   2.167089   4.310233   0.000000
    25  N    5.704375   8.508248   8.976772   8.134337   0.000000
    26  C    6.847151   9.829528  10.397639   9.277707   1.449783
    27  H    7.497789  10.420683  10.914561   9.919317   2.096982
    28  H    7.506922  10.416418  10.906313   9.925988   2.097429
    29  H    6.660644   9.835866  10.622483   9.049604   2.083590
    30  C    4.139939   7.432967   8.479329   6.491062   2.504501
    31  H    4.763754   8.055724   9.143907   7.032216   2.843335
    32  H    3.141802   6.506557   7.720057   5.438082   3.374818
    33  H    4.740550   8.056028   9.151383   7.014409   2.843538
    34  C    5.835699   2.441044   2.493712   4.116639  10.840160
    35  H    6.112636   2.762518   2.193458   4.640131  10.825692
    36  H    6.078103   2.790656   2.402728   4.561501  10.851815
    37  H    6.633518   3.331505   3.564092   4.657848  11.822245
    38  N    4.558770   1.370983   2.682940   2.677672   9.855342
    39  C    4.834953   2.443699   4.121771   2.488974  10.446560
    40  H    5.919437   3.332655   4.662239   3.559589  11.520905
    41  H    4.689129   2.792838   4.564086   2.400344  10.295415
    42  H    4.557443   2.768958   4.648280   2.190864  10.209712
                   26         27         28         29         30
    26  C    0.000000
    27  H    1.091302   0.000000
    28  H    1.091352   1.776542   0.000000
    29  H    1.086036   1.768455   1.768700   0.000000
    30  C    3.044635   3.787675   3.780612   2.579103   0.000000
    31  H    3.050509   3.960177   3.534006   2.416964   1.092715
    32  H    4.102467   4.822177   4.814969   3.663808   1.087204
    33  H    3.051035   3.544279   3.954735   2.412709   1.092713
    34  C   12.196794  12.756618  12.764416  12.249923   9.870361
    35  H   12.208824  12.803641  12.697530  12.325945  10.020442
    36  H   12.226351  12.702656  12.842084  12.328231  10.012185
    37  H   13.157134  13.731814  13.730951  13.163513  10.733234
    38  N   11.157942  11.755332  11.748111  11.122054   8.668591
    39  C   11.660374  12.274849  12.291304  11.493735   8.953397
    40  H   12.742375  13.357835  13.364000  12.578115  10.035732
    41  H   11.468681  12.018190  12.177004  11.261454   8.721368
    42  H   11.367719  12.052516  11.952715  11.138296   8.578963
                   31         32         33         34         35
    31  H    0.000000
    32  H    1.769846   0.000000
    33  H    1.765210   1.769910   0.000000
    34  C   10.491204   8.945822  10.477459   0.000000
    35  H   10.589281   9.143672  10.711987   1.093231   0.000000
    36  H   10.722060   9.127586  10.552023   1.096911   1.772273
    37  H   11.326974   9.771154  11.323204   1.087198   1.760376
    38  N    9.260131   7.697456   9.263697   1.449771   2.109340
    39  C    9.501057   7.913332   9.472786   2.496641   3.302813
    40  H   10.568605   8.992584  10.553939   2.531435   3.354482
    41  H    9.339750   7.676724   9.125377   3.150637   4.089992
    42  H    9.020680   7.520509   9.143805   3.301688   3.889145
                   36         37         38         39         40
    36  H    0.000000
    37  H    1.769552   0.000000
    38  N    2.124762   2.077051   0.000000
    39  C    3.149070   2.532989   1.450150   0.000000
    40  H    3.229517   2.094878   2.076587   1.087155   0.000000
    41  H    3.492100   3.234514   2.125299   1.096774   1.769055
    42  H    4.088697   3.352314   2.110303   1.093152   1.759870
                   41         42
    41  H    0.000000
    42  H    1.772571   0.000000
 Stoichiometry    C18H20N4
 Framework group  C1[X(C18H20N4)]
 Deg. of freedom   120
 Full point group                 C1      NOp   1
 Largest Abelian subgroup         C1      NOp   1
 Largest concise Abelian subgroup C1      NOp   1
                         Standard orientation:                         
 ---------------------------------------------------------------------
 Center     Atomic      Atomic             Coordinates (Angstroms)
 Number     Number       Type             X           Y           Z
 ---------------------------------------------------------------------
      1          7           0        0.488921    0.674938   -0.015249
      2          7           0       -0.184389   -0.383225   -0.017543
      3          6           0        1.859685    0.518515   -0.007024
      4          6           0        2.692279   -0.661898    0.004240
      5          6           0        2.700663    1.619647   -0.008066
      6          6           0        4.020901   -0.191432    0.009557
      7          6           0        2.464190   -2.040957    0.010902
      8          6           0        5.116383   -1.048217    0.020766
      9          6           0        3.550769   -2.898790    0.022299
     10          1           0        1.452328   -2.418101    0.007079
     11          6           0        4.862908   -2.409217    0.027049
     12          1           0        6.130690   -0.669168    0.024435
     13          1           0        3.385170   -3.969614    0.027552
     14          1           0        5.693161   -3.105090    0.035818
     15          6           0       -1.585057   -0.207525   -0.023136
     16          6           0       -2.360679   -1.363914   -0.046036
     17          6           0       -2.244652    1.024046    0.000273
     18          6           0       -3.741445   -1.311138   -0.052163
     19          1           0       -1.856764   -2.323435   -0.056407
     20          6           0       -3.621049    1.094435   -0.005066
     21          1           0       -1.658732    1.932871    0.027054
     22          6           0       -4.415831   -0.073959   -0.041053
     23          1           0       -4.297966   -2.236781   -0.064792
     24          1           0       -4.089758    2.067579    0.020306
     25          7           0        3.997423    1.193160    0.001999
     26          6           0        5.187815    2.020707    0.003486
     27          1           0        5.788051    1.823041    0.893197
     28          1           0        5.791952    1.821690   -0.883340
     29          1           0        4.904242    3.069067    0.002280
     30          6           0        2.325250    3.057546   -0.018665
     31          1           0        2.718691    3.566373   -0.902025
     32          1           0        1.241236    3.140484   -0.025612
     33          1           0        2.708292    3.576921    0.863123
     34          6           0       -6.571366   -1.216943    0.036108
     35          1           0       -6.345107   -1.907717   -0.780465
     36          1           0       -6.403157   -1.744004    0.983275
     37          1           0       -7.626488   -0.963040   -0.029084
     38          7           0       -5.784758   -0.003485   -0.066864
     39          6           0       -6.448418    1.276037    0.092237
     40          1           0       -7.523283    1.128656    0.022587
     41          1           0       -6.228713    1.742891    1.060065
     42          1           0       -6.158294    1.976014   -0.695698
 ---------------------------------------------------------------------
 Rotational constants (GHZ):           0.7259915           0.1106977           0.0962965
 Leave Link  202 at Thu Feb 13 13:32:42 2025, MaxMem= 25501368320 cpu:               0.2 elap:               0.0
 (Enter /share/Apps/gaussian/g16/l301.exe)
 Standard basis: 6-311G(d,p) (5D, 7F)
 Ernie: Thresh=  0.10000D-02 Tol=  0.10000D-05 Strict=F.
 There are   538 symmetry adapted cartesian basis functions of A   symmetry.
 There are   516 symmetry adapted basis functions of A   symmetry.
   516 basis functions,   864 primitive gaussians,   538 cartesian basis functions
    78 alpha electrons       78 beta electrons
       nuclear repulsion energy      1638.2987768512 Hartrees.
 IExCor=20419 DFT=T Ex+Corr=CAM-B3LYP ExCW=0 ScaHFX=  1.000000
 ScaDFX=  1.000000  1.000000  1.000000  0.810000 ScalE2=  1.000000  1.000000
 IRadAn=      5 IRanWt=     -1 IRanGd=            0 ICorTp=0 IEmpDi=  4
 HFx  wShort=  0.000000 wLong=  0.330000 cFull=  0.190000 cShort=  0.000000 cLong=  0.460000
 DFx  wShort=  0.000000 wLong=  0.330000 cFull=  0.190000 cShort=  0.000000 cLong=  0.460000
 NAtoms=   42 NActive=   42 NUniq=   42 SFac= 1.00D+00 NAtFMM=   60 NAOKFM=F Big=F
 Integral buffers will be    131072 words long.
 Raffenetti 1 integral format.
 Two-electron integral symmetry is turned on.
 ------------------------------------------------------------------------------
 Polarizable Continuum Model (PCM)
 =================================
 Model                : PCM.
 Atomic radii         : UFF (Universal Force Field).
 Polarization charges : Total charges.
 Charge compensation  : None.
 Solution method      : On-the-fly selection.
 Cavity type          : Scaled VdW (van der Waals Surface) (Alpha=1.100).
 Cavity algorithm     : GePol (No added spheres)
                        Default sphere list used, NSphG=   42.
                        Lebedev-Laikov grids with approx.  5.0 points / Ang**2.
                        Smoothing algorithm: York/Karplus (Gamma=1.0000).
                        Polarization charges: spherical gaussians, with
                                              point-specific exponents (IZeta= 3).
                        Self-potential: point-specific (ISelfS= 7).
                        Self-field    : sphere-specific E.n sum rule (ISelfD= 2).
 Solvent              : Acetonitrile, Eps=  35.688000 Eps(inf)=   1.806874
 ------------------------------------------------------------------------------
 GePol: Number of generator spheres                  =      42
 GePol: Total number of spheres                      =      42
 GePol: Number of exposed spheres                    =      42 (100.00%)
 GePol: Number of points                             =    3061
 GePol: Average weight of points                     =       0.13
 GePol: Minimum weight of points                     =   0.15D-09
 GePol: Maximum weight of points                     =    0.20577
 GePol: Number of points with low weight             =     198
 GePol: Fraction of low-weight points (<1% of avg)   =       6.47%
 GePol: Cavity surface area                          =    393.380 Ang**2
 GePol: Cavity volume                                =    427.380 Ang**3
 Leave Link  301 at Thu Feb 13 13:32:42 2025, MaxMem= 25501368320 cpu:               3.7 elap:               0.1
 (Enter /share/Apps/gaussian/g16/l302.exe)
 NPDir=0 NMtPBC=     1 NCelOv=     1 NCel=       1 NClECP=     1 NCelD=      1
         NCelK=      1 NCelE2=     1 NClLst=     1 CellRange=     0.0.
 One-electron integrals computed using PRISM.
 One-electron integral symmetry used in STVInt
 NBasis=   516 RedAO= T EigKep=  1.25D-04  NBF=   516
 NBsUse=   516 1.00D-06 EigRej= -1.00D+00 NBFU=   516
 Precomputing XC quadrature grid using
 IXCGrd= 4 IRadAn=           5 IRanWt=          -1 IRanGd=           0 AccXCQ= 0.00D+00.
 Generated NRdTot=       0 NPtTot=           0 NUsed=           0 NTot=          32
 NSgBfM=   528   528   528   528   528 MxSgAt=    42 MxSgA2=    42.
 Leave Link  302 at Thu Feb 13 13:32:42 2025, MaxMem= 25501368320 cpu:              16.6 elap:               0.5
 (Enter /share/Apps/gaussian/g16/l303.exe)
 DipDrv:  MaxL=1.
 Leave Link  303 at Thu Feb 13 13:32:43 2025, MaxMem= 25501368320 cpu:               2.1 elap:               0.1
 (Enter /share/Apps/gaussian/g16/l308.exe)
 Leave Link  308 at Thu Feb 13 13:32:43 2025, MaxMem= 25501368320 cpu:               2.6 elap:               0.1
 (Enter /share/Apps/gaussian/g16/l401.exe)
 ExpMin= 1.03D-01 ExpMax= 6.29D+03 ExpMxC= 9.49D+02 IAcc=3 IRadAn=         5 AccDes= 0.00D+00
 Harris functional with IExCor=20419 and IRadAn=       5 diagonalized for initial guess.
 HarFok:  IExCor=20419 AccDes= 0.00D+00 IRadAn=         5 IDoV= 1 UseB2=F ITyADJ=14
 ICtDFT=  3500011 ScaDFX=  1.000000  1.000000  1.000000  1.000000
 FoFCou: FMM=F IPFlag=           0 FMFlag=      100000 FMFlg1=           0
         NFxFlg=           0 DoJE=T BraDBF=F KetDBF=T FulRan=T
         wScrn=  0.000000 ICntrl=       500 IOpCl=  0 I1Cent=   200000004 NGrid=           0
         NMat0=    1 NMatS0=      1 NMatT0=    0 NMatD0=    1 NMtDS0=    0 NMtDT0=    0
 Petite list used in FoFCou.
 Harris En= -879.953980497495    
 JPrj=0 DoOrth=F DoCkMO=F.
 Leave Link  401 at Thu Feb 13 13:32:44 2025, MaxMem= 25501368320 cpu:              33.1 elap:               1.0
 (Enter /share/Apps/gaussian/g16/l502.exe)
 Integral symmetry usage will be decided dynamically.
 Closed shell SCF:
 Using DIIS extrapolation, IDIIS=  1040.
 NGot= 25501368320 LenX= 25500763696 LenY= 25500473714
 Requested convergence on RMS density matrix=1.00D-08 within 128 cycles.
 Requested convergence on MAX density matrix=1.00D-06.
 Requested convergence on             energy=1.00D-06.
 No special actions if energy rises.
 Fock matrices will be formed incrementally for  20 cycles.

 Cycle   1  Pass 1  IDiag  1:
 FoFJK:  IHMeth= 1 ICntrl=       0 DoSepK=T KAlg= 0 I1Cent=           0 FoldK=F
 IRaf=         1 NMat=       1 IRICut=       1 DoRegI=T DoRafI=F ISym2E= 0 IDoP0=0 IntGTp=1.
 FoFCou: FMM=F IPFlag=           0 FMFlag=      100000 FMFlg1=           0
         NFxFlg=           0 DoJE=T BraDBF=F KetDBF=F FulRan=T
         wScrn=  0.000000 ICntrl=       500 IOpCl=  0 I1Cent=           0 NGrid=           0
         NMat0=    1 NMatS0=      1 NMatT0=    0 NMatD0=    1 NMtDS0=    0 NMtDT0=    0
 Symmetry not used in FoFCou.
 Inv3:  Mode=1 IEnd=    28109163.
 Iteration    1 A*A^-1 deviation from unit magnitude is 3.77D-15 for   2558.
 Iteration    1 A*A^-1 deviation from orthogonality  is 2.11D-15 for   2275    128.
 Iteration    1 A^-1*A deviation from unit magnitude is 3.55D-15 for   1392.
 Iteration    1 A^-1*A deviation from orthogonality  is 3.69D-15 for   2675   2642.
 E= -916.359409957920    
 DIIS: error= 5.26D-02 at cycle   1 NSaved=   1.
 NSaved= 1 IEnMin= 1 EnMin= -916.359409957920     IErMin= 1 ErrMin= 5.26D-02
 ErrMax= 5.26D-02  0.00D+00 EMaxC= 1.00D-01 BMatC= 1.62D+00 BMatP= 1.62D+00
 IDIUse=3 WtCom= 4.74D-01 WtEn= 5.26D-01
 Coeff-Com:  0.100D+01
 Coeff-En:   0.100D+01
 Coeff:      0.100D+01
 Gap=     0.230 Goal=   None    Shift=    0.000
 GapD=    0.230 DampG=1.000 DampE=0.500 DampFc=0.5000 IDamp=-1.
 Damping current iteration by 5.00D-01
 RMSDP=2.86D-03 MaxDP=2.07D-01              OVMax= 1.46D-01

 Cycle   2  Pass 1  IDiag  1:
 RMSU=  1.25D-03    CP:  9.28D-01
 E= -916.497555408671     Delta-E=       -0.138145450752 Rises=F Damp=T
 DIIS: error= 2.43D-02 at cycle   2 NSaved=   2.
 NSaved= 2 IEnMin= 2 EnMin= -916.497555408671     IErMin= 2 ErrMin= 2.43D-02
 ErrMax= 2.43D-02  0.00D+00 EMaxC= 1.00D-01 BMatC= 3.31D-01 BMatP= 1.62D+00
 IDIUse=3 WtCom= 7.57D-01 WtEn= 2.43D-01
 Coeff-Com: -0.511D+00 0.151D+01
 Coeff-En:   0.000D+00 0.100D+01
 Coeff:     -0.387D+00 0.139D+01
 Gap=     0.260 Goal=   None    Shift=    0.000
 RMSDP=9.44D-04 MaxDP=6.16D-02 DE=-1.38D-01 OVMax= 1.50D-01

 Cycle   3  Pass 1  IDiag  1:
 RMSU=  7.71D-04    CP:  9.61D-01  6.45D-01
 E= -916.575333453951     Delta-E=       -0.077778045280 Rises=F Damp=F
 DIIS: error= 1.75D-02 at cycle   3 NSaved=   3.
 NSaved= 3 IEnMin= 3 EnMin= -916.575333453951     IErMin= 3 ErrMin= 1.75D-02
 ErrMax= 1.75D-02  0.00D+00 EMaxC= 1.00D-01 BMatC= 1.03D-01 BMatP= 3.31D-01
 IDIUse=3 WtCom= 8.25D-01 WtEn= 1.75D-01
 Coeff-Com: -0.339D+00 0.732D+00 0.607D+00
 Coeff-En:   0.000D+00 0.000D+00 0.100D+01
 Coeff:     -0.280D+00 0.605D+00 0.675D+00
 Gap=     0.219 Goal=   None    Shift=    0.000
 RMSDP=1.10D-03 MaxDP=8.45D-02 DE=-7.78D-02 OVMax= 6.80D-02

 Cycle   4  Pass 1  IDiag  1:
 RMSU=  1.71D-04    CP:  9.06D-01  1.36D+00  5.77D-01
 E= -916.656225420037     Delta-E=       -0.080891966086 Rises=F Damp=F
 DIIS: error= 5.59D-03 at cycle   4 NSaved=   4.
 NSaved= 4 IEnMin= 4 EnMin= -916.656225420037     IErMin= 4 ErrMin= 5.59D-03
 ErrMax= 5.59D-03  0.00D+00 EMaxC= 1.00D-01 BMatC= 8.37D-03 BMatP= 1.03D-01
 IDIUse=3 WtCom= 9.44D-01 WtEn= 5.59D-02
 Coeff-Com: -0.146D+00 0.315D+00 0.375D+00 0.456D+00
 Coeff-En:   0.000D+00 0.000D+00 0.000D+00 0.100D+01
 Coeff:     -0.137D+00 0.298D+00 0.354D+00 0.486D+00
 Gap=     0.205 Goal=   None    Shift=    0.000
 RMSDP=1.23D-04 MaxDP=1.20D-02 DE=-8.09D-02 OVMax= 1.77D-02

 Cycle   5  Pass 1  IDiag  1:
 RMSU=  1.01D-04    CP:  9.07D-01  1.32D+00  6.35D-01  9.20D-01
 E= -916.662939385852     Delta-E=       -0.006713965815 Rises=F Damp=F
 DIIS: error= 9.20D-04 at cycle   5 NSaved=   5.
 NSaved= 5 IEnMin= 5 EnMin= -916.662939385852     IErMin= 5 ErrMin= 9.20D-04
 ErrMax= 9.20D-04  0.00D+00 EMaxC= 1.00D-01 BMatC= 8.95D-05 BMatP= 8.37D-03
 IDIUse=3 WtCom= 9.91D-01 WtEn= 9.20D-03
 Coeff-Com:  0.477D-02-0.103D-01 0.150D-01 0.132D+00 0.858D+00
 Coeff-En:   0.000D+00 0.000D+00 0.000D+00 0.000D+00 0.100D+01
 Coeff:      0.473D-02-0.102D-01 0.148D-01 0.131D+00 0.859D+00
 Gap=     0.207 Goal=   None    Shift=    0.000
 RMSDP=3.15D-05 MaxDP=1.59D-03 DE=-6.71D-03 OVMax= 8.88D-03

 Cycle   6  Pass 1  IDiag  1:
 RMSU=  2.19D-05    CP:  9.07D-01  1.32D+00  6.47D-01  1.02D+00  9.00D-01
 E= -916.663065783236     Delta-E=       -0.000126397383 Rises=F Damp=F
 DIIS: error= 2.72D-04 at cycle   6 NSaved=   6.
 NSaved= 6 IEnMin= 6 EnMin= -916.663065783236     IErMin= 6 ErrMin= 2.72D-04
 ErrMax= 2.72D-04  0.00D+00 EMaxC= 1.00D-01 BMatC= 3.02D-05 BMatP= 8.95D-05
 IDIUse=3 WtCom= 9.97D-01 WtEn= 2.72D-03
 Coeff-Com:  0.192D-01-0.419D-01-0.382D-01-0.240D-03 0.448D+00 0.613D+00
 Coeff-En:   0.000D+00 0.000D+00 0.000D+00 0.000D+00 0.000D+00 0.100D+01
 Coeff:      0.192D-01-0.418D-01-0.381D-01-0.239D-03 0.447D+00 0.614D+00
 Gap=     0.207 Goal=   None    Shift=    0.000
 RMSDP=3.39D-05 MaxDP=2.67D-03 DE=-1.26D-04 OVMax= 2.17D-03

 Cycle   7  Pass 1  IDiag  1:
 RMSU=  8.63D-06    CP:  9.06D-01  1.34D+00  6.42D-01  1.07D+00  1.06D+00
                    CP:  9.24D-01
 E= -916.663099637571     Delta-E=       -0.000033854336 Rises=F Damp=F
 DIIS: error= 8.99D-05 at cycle   7 NSaved=   7.
 NSaved= 7 IEnMin= 7 EnMin= -916.663099637571     IErMin= 7 ErrMin= 8.99D-05
 ErrMax= 8.99D-05  0.00D+00 EMaxC= 1.00D-01 BMatC= 1.81D-06 BMatP= 3.02D-05
 IDIUse=1 WtCom= 1.00D+00 WtEn= 0.00D+00
 Coeff-Com:  0.533D-02-0.116D-01-0.143D-01-0.196D-01 0.477D-01 0.186D+00
 Coeff-Com:  0.807D+00
 Coeff:      0.533D-02-0.116D-01-0.143D-01-0.196D-01 0.477D-01 0.186D+00
 Coeff:      0.807D+00
 Gap=     0.207 Goal=   None    Shift=    0.000
 RMSDP=1.13D-05 MaxDP=9.11D-04 DE=-3.39D-05 OVMax= 1.26D-03

 Cycle   8  Pass 1  IDiag  1:
 RMSU=  3.93D-06    CP:  9.05D-01  1.34D+00  6.40D-01  1.09D+00  1.10D+00
                    CP:  1.07D+00  9.16D-01
 E= -916.663102977751     Delta-E=       -0.000003340180 Rises=F Damp=F
 DIIS: error= 6.04D-05 at cycle   8 NSaved=   8.
 NSaved= 8 IEnMin= 8 EnMin= -916.663102977751     IErMin= 8 ErrMin= 6.04D-05
 ErrMax= 6.04D-05  0.00D+00 EMaxC= 1.00D-01 BMatC= 5.98D-07 BMatP= 1.81D-06
 IDIUse=1 WtCom= 1.00D+00 WtEn= 0.00D+00
 Coeff-Com: -0.140D-02 0.305D-02 0.652D-03-0.102D-01-0.585D-01-0.356D-01
 Coeff-Com:  0.408D+00 0.694D+00
 Coeff:     -0.140D-02 0.305D-02 0.652D-03-0.102D-01-0.585D-01-0.356D-01
 Coeff:      0.408D+00 0.694D+00
 Gap=     0.208 Goal=   None    Shift=    0.000
 RMSDP=3.04D-06 MaxDP=1.19D-04 DE=-3.34D-06 OVMax= 6.08D-04

 Cycle   9  Pass 1  IDiag  1:
 RMSU=  1.20D-06    CP:  9.05D-01  1.34D+00  6.40D-01  1.09D+00  1.11D+00
                    CP:  1.11D+00  1.11D+00  8.54D-01
 E= -916.663103887686     Delta-E=       -0.000000909936 Rises=F Damp=F
 DIIS: error= 1.49D-05 at cycle   9 NSaved=   9.
 NSaved= 9 IEnMin= 9 EnMin= -916.663103887686     IErMin= 9 ErrMin= 1.49D-05
 ErrMax= 1.49D-05  0.00D+00 EMaxC= 1.00D-01 BMatC= 8.58D-08 BMatP= 5.98D-07
 IDIUse=1 WtCom= 1.00D+00 WtEn= 0.00D+00
 Coeff-Com: -0.114D-02 0.250D-02 0.156D-02-0.313D-02-0.304D-01-0.405D-01
 Coeff-Com:  0.740D-01 0.334D+00 0.663D+00
 Coeff:     -0.114D-02 0.250D-02 0.156D-02-0.313D-02-0.304D-01-0.405D-01
 Coeff:      0.740D-01 0.334D+00 0.663D+00
 Gap=     0.208 Goal=   None    Shift=    0.000
 RMSDP=1.63D-06 MaxDP=1.30D-04 DE=-9.10D-07 OVMax= 1.54D-04

 Cycle  10  Pass 1  IDiag  1:
 RMSU=  5.18D-07    CP:  9.05D-01  1.34D+00  6.39D-01  1.09D+00  1.12D+00
                    CP:  1.13D+00  1.11D+00  1.01D+00  9.95D-01
 E= -916.663103997303     Delta-E=       -0.000000109616 Rises=F Damp=F
 DIIS: error= 4.59D-06 at cycle  10 NSaved=  10.
 NSaved=10 IEnMin=10 EnMin= -916.663103997303     IErMin=10 ErrMin= 4.59D-06
 ErrMax= 4.59D-06  0.00D+00 EMaxC= 1.00D-01 BMatC= 7.76D-09 BMatP= 8.58D-08
 IDIUse=1 WtCom= 1.00D+00 WtEn= 0.00D+00
 Coeff-Com: -0.282D-03 0.609D-03 0.532D-03 0.125D-03-0.275D-02-0.117D-01
 Coeff-Com: -0.382D-01 0.497D-01 0.235D+00 0.767D+00
 Coeff:     -0.282D-03 0.609D-03 0.532D-03 0.125D-03-0.275D-02-0.117D-01
 Coeff:     -0.382D-01 0.497D-01 0.235D+00 0.767D+00
 Gap=     0.208 Goal=   None    Shift=    0.000
 RMSDP=4.28D-07 MaxDP=2.36D-05 DE=-1.10D-07 OVMax= 8.50D-05

 Cycle  11  Pass 1  IDiag  1:
 RMSU=  1.77D-07    CP:  9.05D-01  1.34D+00  6.39D-01  1.10D+00  1.12D+00
                    CP:  1.13D+00  1.12D+00  1.05D+00  1.13D+00  1.05D+00
 E= -916.663104012388     Delta-E=       -0.000000015086 Rises=F Damp=F
 DIIS: error= 2.09D-06 at cycle  11 NSaved=  11.
 NSaved=11 IEnMin=11 EnMin= -916.663104012388     IErMin=11 ErrMin= 2.09D-06
 ErrMax= 2.09D-06  0.00D+00 EMaxC= 1.00D-01 BMatC= 1.51D-09 BMatP= 7.76D-09
 IDIUse=1 WtCom= 1.00D+00 WtEn= 0.00D+00
 Coeff-Com:  0.457D-04-0.105D-03-0.100D-04 0.488D-03 0.335D-02 0.160D-02
 Coeff-Com: -0.270D-01-0.212D-01-0.286D-01 0.292D+00 0.779D+00
 Coeff:      0.457D-04-0.105D-03-0.100D-04 0.488D-03 0.335D-02 0.160D-02
 Coeff:     -0.270D-01-0.212D-01-0.286D-01 0.292D+00 0.779D+00
 Gap=     0.208 Goal=   None    Shift=    0.000
 RMSDP=2.09D-07 MaxDP=1.27D-05 DE=-1.51D-08 OVMax= 4.77D-05

 Cycle  12  Pass 1  IDiag  1:
 RMSU=  7.51D-08    CP:  9.05D-01  1.34D+00  6.39D-01  1.10D+00  1.12D+00
                    CP:  1.13D+00  1.12D+00  1.08D+00  1.17D+00  1.24D+00
                    CP:  1.10D+00
 E= -916.663104015340     Delta-E=       -0.000000002952 Rises=F Damp=F
 DIIS: error= 6.64D-07 at cycle  12 NSaved=  12.
 NSaved=12 IEnMin=12 EnMin= -916.663104015340     IErMin=12 ErrMin= 6.64D-07
 ErrMax= 6.64D-07  0.00D+00 EMaxC= 1.00D-01 BMatC= 2.64D-10 BMatP= 1.51D-09
 IDIUse=1 WtCom= 1.00D+00 WtEn= 0.00D+00
 Coeff-Com:  0.689D-04-0.149D-03-0.101D-03 0.168D-03 0.161D-02 0.286D-02
 Coeff-Com: -0.416D-02-0.112D-01-0.539D-01-0.336D-01 0.261D+00 0.838D+00
 Coeff:      0.689D-04-0.149D-03-0.101D-03 0.168D-03 0.161D-02 0.286D-02
 Coeff:     -0.416D-02-0.112D-01-0.539D-01-0.336D-01 0.261D+00 0.838D+00
 Gap=     0.208 Goal=   None    Shift=    0.000
 RMSDP=7.79D-08 MaxDP=3.10D-06 DE=-2.95D-09 OVMax= 2.07D-05

 Cycle  13  Pass 1  IDiag  1:
 RMSU=  2.76D-08    CP:  9.05D-01  1.34D+00  6.39D-01  1.10D+00  1.12D+00
                    CP:  1.14D+00  1.12D+00  1.08D+00  1.19D+00  1.31D+00
                    CP:  1.30D+00  1.25D+00
 E= -916.663104015925     Delta-E=       -0.000000000585 Rises=F Damp=F
 DIIS: error= 4.91D-07 at cycle  13 NSaved=  13.
 NSaved=13 IEnMin=13 EnMin= -916.663104015925     IErMin=13 ErrMin= 4.91D-07
 ErrMax= 4.91D-07  0.00D+00 EMaxC= 1.00D-01 BMatC= 4.07D-11 BMatP= 2.64D-10
 IDIUse=1 WtCom= 1.00D+00 WtEn= 0.00D+00
 Coeff-Com:  0.136D-04-0.282D-04-0.285D-04-0.290D-04-0.169D-03 0.812D-03
 Coeff-Com:  0.328D-02 0.288D-02-0.126D-01-0.677D-01-0.480D-01 0.271D+00
 Coeff-Com:  0.850D+00
 Coeff:      0.136D-04-0.282D-04-0.285D-04-0.290D-04-0.169D-03 0.812D-03
 Coeff:      0.328D-02 0.288D-02-0.126D-01-0.677D-01-0.480D-01 0.271D+00
 Coeff:      0.850D+00
 Gap=     0.208 Goal=   None    Shift=    0.000
 RMSDP=3.81D-08 MaxDP=1.75D-06 DE=-5.85D-10 OVMax= 1.04D-05

 Cycle  14  Pass 1  IDiag  1:
 RMSU=  1.34D-08    CP:  9.05D-01  1.34D+00  6.39D-01  1.10D+00  1.12D+00
                    CP:  1.14D+00  1.12D+00  1.09D+00  1.19D+00  1.34D+00
                    CP:  1.39D+00  1.46D+00  1.16D+00
 E= -916.663104015993     Delta-E=       -0.000000000068 Rises=F Damp=F
 DIIS: error= 1.47D-07 at cycle  14 NSaved=  14.
 NSaved=14 IEnMin=14 EnMin= -916.663104015993     IErMin=14 ErrMin= 1.47D-07
 ErrMax= 1.47D-07  0.00D+00 EMaxC= 1.00D-01 BMatC= 8.71D-12 BMatP= 4.07D-11
 IDIUse=1 WtCom= 1.00D+00 WtEn= 0.00D+00
 Coeff-Com: -0.436D-05 0.992D-05 0.517D-05-0.303D-04-0.311D-03-0.155D-04
 Coeff-Com:  0.169D-02 0.297D-02 0.161D-02-0.259D-01-0.571D-01-0.223D-01
 Coeff-Com:  0.374D+00 0.726D+00
 Coeff:     -0.436D-05 0.992D-05 0.517D-05-0.303D-04-0.311D-03-0.155D-04
 Coeff:      0.169D-02 0.297D-02 0.161D-02-0.259D-01-0.571D-01-0.223D-01
 Coeff:      0.374D+00 0.726D+00
 Gap=     0.208 Goal=   None    Shift=    0.000
 RMSDP=1.23D-08 MaxDP=4.68D-07 DE=-6.78D-11 OVMax= 3.51D-06

 Cycle  15  Pass 1  IDiag  1:
 RMSU=  4.96D-09    CP:  9.05D-01  1.34D+00  6.39D-01  1.10D+00  1.12D+00
                    CP:  1.14D+00  1.12D+00  1.09D+00  1.19D+00  1.35D+00
                    CP:  1.42D+00  1.53D+00  1.33D+00  1.09D+00
 E= -916.663104016025     Delta-E=       -0.000000000032 Rises=F Damp=F
 DIIS: error= 5.95D-08 at cycle  15 NSaved=  15.
 NSaved=15 IEnMin=15 EnMin= -916.663104016025     IErMin=15 ErrMin= 5.95D-08
 ErrMax= 5.95D-08  0.00D+00 EMaxC= 1.00D-01 BMatC= 7.40D-13 BMatP= 8.71D-12
 IDIUse=1 WtCom= 1.00D+00 WtEn= 0.00D+00
 Coeff-Com: -0.245D-05 0.525D-05 0.476D-05-0.379D-05-0.522D-04-0.886D-04
 Coeff-Com: -0.202D-03 0.469D-03 0.225D-02 0.429D-02-0.564D-02-0.531D-01
 Coeff-Com: -0.239D-01 0.196D+00 0.880D+00
 Coeff:     -0.245D-05 0.525D-05 0.476D-05-0.379D-05-0.522D-04-0.886D-04
 Coeff:     -0.202D-03 0.469D-03 0.225D-02 0.429D-02-0.564D-02-0.531D-01
 Coeff:     -0.239D-01 0.196D+00 0.880D+00
 Gap=     0.208 Goal=   None    Shift=    0.000
 RMSDP=4.97D-09 MaxDP=2.68D-07 DE=-3.18D-11 OVMax= 1.22D-06

 Error on total polarization charges =  0.01673
 SCF Done:  E(RCAM-B3LYP) =  -916.663104016     A.U. after   15 cycles
            NFock= 15  Conv=0.50D-08     -V/T= 2.0034
 KE= 9.135592761207D+02 PE=-5.409531696702D+03 EE= 1.941010539714D+03
 Leave Link  502 at Thu Feb 13 13:33:40 2025, MaxMem= 25501368320 cpu:            1975.8 elap:              56.3
 (Enter /share/Apps/gaussian/g16/l801.exe)
 DoSCS=F DFT=T ScalE2(SS,OS)=  1.000000  1.000000
 ExpMin= 1.03D-01 ExpMax= 6.29D+03 ExpMxC= 9.49D+02 IAcc=3 IRadAn=         5 AccDes= 0.00D+00
 HarFok:  IExCor=  205 AccDes= 0.00D+00 IRadAn=         5 IDoV=-2 UseB2=F ITyADJ=14
 ICtDFT= 12500011 ScaDFX=  1.000000  1.000000  1.000000  1.000000
 GSVD:  LWork=        -660 too small for GESVD, short by        2750 words or        2750 for optimal perf.
 Largest valence mixing into a core orbital is  5.13D-05
 Largest core mixing into a valence orbital is  1.66D-05
 Range of M.O.s used for correlation:    23   516
 NBasis=   516 NAE=    78 NBE=    78 NFC=    22 NFV=     0
 NROrb=    494 NOA=    56 NOB=    56 NVA=   438 NVB=   438

 **** Warning!!: The largest alpha MO coefficient is  0.17354218D+02

 Leave Link  801 at Thu Feb 13 13:33:40 2025, MaxMem= 25501368320 cpu:               4.0 elap:               0.1
 (Enter /share/Apps/gaussian/g16/l914.exe)
 RHF ground state
 Two-electron integrals replicated using symmetry.
 MDV= 25501368320 DFT=T DoStab=F Mixed=T DoRPA=T DoScal=F NonHer=T
 NEqPCM:  Using non-equilibrium solvation (IEInf=1, Eps=  35.6880, EpsInf=   1.8069)
 Inv3:  Mode=1 IEnd=    28109163.
 Iteration    1 A*A^-1 deviation from unit magnitude is 4.00D-15 for    458.
 Iteration    1 A*A^-1 deviation from orthogonality  is 3.11D-15 for   2642    118.
 Iteration    1 A^-1*A deviation from unit magnitude is 3.77D-15 for    458.
 Iteration    1 A^-1*A deviation from orthogonality  is 3.71D-15 for   2680   2642.
 Making orbital integer symmetry assigments:
 Orbital symmetries:
       Occupied  (A) (A) (A) (A) (A) (A) (A) (A) (A) (A) (A) (A)
                 (A) (A) (A) (A) (A) (A) (A) (A) (A) (A) (A) (A)
                 (A) (A) (A) (A) (A) (A) (A) (A) (A) (A) (A) (A)
                 (A) (A) (A) (A) (A) (A) (A) (A) (A) (A) (A) (A)
                 (A) (A) (A) (A) (A) (A) (A) (A) (A) (A) (A) (A)
                 (A) (A) (A) (A) (A) (A) (A) (A) (A) (A) (A) (A)
                 (A) (A) (A) (A) (A) (A)
       Virtual   (A) (A) (A) (A) (A) (A) (A) (A) (A) (A) (A) (A)
                 (A) (A) (A) (A) (A) (A) (A) (A) (A) (A) (A) (A)
                 (A) (A) (A) (A) (A) (A) (A) (A) (A) (A) (A) (A)
                 (A) (A) (A) (A) (A) (A) (A) (A) (A) (A) (A) (A)
                 (A) (A) (A) (A) (A) (A) (A) (A) (A) (A) (A) (A)
                 (A) (A) (A) (A) (A) (A) (A) (A) (A) (A) (A) (A)
                 (A) (A) (A) (A) (A) (A) (A) (A) (A) (A) (A) (A)
                 (A) (A) (A) (A) (A) (A) (A) (A) (A) (A) (A) (A)
                 (A) (A) (A) (A) (A) (A) (A) (A) (A) (A) (A) (A)
                 (A) (A) (A) (A) (A) (A) (A) (A) (A) (A) (A) (A)
                 (A) (A) (A) (A) (A) (A) (A) (A) (A) (A) (A) (A)
                 (A) (A) (A) (A) (A) (A) (A) (A) (A) (A) (A) (A)
                 (A) (A) (A) (A) (A) (A) (A) (A) (A) (A) (A) (A)
                 (A) (A) (A) (A) (A) (A) (A) (A) (A) (A) (A) (A)
                 (A) (A) (A) (A) (A) (A) (A) (A) (A) (A) (A) (A)
                 (A) (A) (A) (A) (A) (A) (A) (A) (A) (A) (A) (A)
                 (A) (A) (A) (A) (A) (A) (A) (A) (A) (A) (A) (A)
                 (A) (A) (A) (A) (A) (A) (A) (A) (A) (A) (A) (A)
                 (A) (A) (A) (A) (A) (A) (A) (A) (A) (A) (A) (A)
                 (A) (A) (A) (A) (A) (A) (A) (A) (A) (A) (A) (A)
                 (A) (A) (A) (A) (A) (A) (A) (A) (A) (A) (A) (A)
                 (A) (A) (A) (A) (A) (A) (A) (A) (A) (A) (A) (A)
                 (A) (A) (A) (A) (A) (A) (A) (A) (A) (A) (A) (A)
                 (A) (A) (A) (A) (A) (A) (A) (A) (A) (A) (A) (A)
                 (A) (A) (A) (A) (A) (A) (A) (A) (A) (A) (A) (A)
                 (A) (A) (A) (A) (A) (A) (A) (A) (A) (A) (A) (A)
                 (A) (A) (A) (A) (A) (A) (A) (A) (A) (A) (A) (A)
                 (A) (A) (A) (A) (A) (A) (A) (A) (A) (A) (A) (A)
                 (A) (A) (A) (A) (A) (A) (A) (A) (A) (A) (A) (A)
                 (A) (A) (A) (A) (A) (A) (A) (A) (A) (A) (A) (A)
                 (A) (A) (A) (A) (A) (A) (A) (A) (A) (A) (A) (A)
                 (A) (A) (A) (A) (A) (A) (A) (A) (A) (A) (A) (A)
                 (A) (A) (A) (A) (A) (A) (A) (A) (A) (A) (A) (A)
                 (A) (A) (A) (A) (A) (A) (A) (A) (A) (A) (A) (A)
                 (A) (A) (A) (A) (A) (A) (A) (A) (A) (A) (A) (A)
                 (A) (A) (A) (A) (A) (A) (A) (A) (A) (A) (A) (A)
                 (A) (A) (A) (A) (A) (A)
    80 initial guesses have been made.
 Convergence on wavefunction:    0.001000000000000
 Davidson Disk Diagonalization:  ConvIn= 1.00D-03 SkipCon=T Conv= 1.00D-03.
 Max sub-space:  2000 roots to seek:    80 dimension of matrix:        49056
 Iteration     1 Dimension    80 NMult     0 NNew     80
 CISAX will form    80 AO SS matrices at one time.
 NMat=    80 NSing=    80 JSym2X= 0.
 FoFJK:  IHMeth= 1 ICntrl=       0 DoSepK=T KAlg= 0 I1Cent=           0 FoldK=F
 IRaf=         1 NMat=     160 IRICut=       1 DoRegI=T DoRafI=F ISym2E= 0 IDoP0=3 IntGTp=3.
 New state      1 was old state      5
 New state      2 was old state      1
 New state      3 was old state      6
 New state      4 was old state      3
 New state      5 was old state      2
 New state      6 was old state      4
 New state      7 was old state     11
 New state      9 was old state     12
 New state     10 was old state     18
 New state     11 was old state     10
 New state     12 was old state     14
 New state     13 was old state      9
 New state     14 was old state     13
 New state     15 was old state      7
 New state     16 was old state     15
 New state     17 was old state     16
 New state     18 was old state     19
 New state     19 was old state     26
 New state     20 was old state     21
 Excitation Energies [eV] at current iteration:
 Root      1 :     3.321579930156644
 Root      2 :     3.781163046071133
 Root      3 :     4.704903710229547
 Root      4 :     4.805085479533331
 Root      5 :     5.088773583160265
 Root      6 :     5.265239153833962
 Root      7 :     5.427946230690692
 Root      8 :     5.834980787867399
 Root      9 :     6.002383041116615
 Root     10 :     6.132821226514040
 Root     11 :     6.159022269957535
 Root     12 :     6.248131079578697
 Root     13 :     6.380057668782826
 Root     14 :     6.491604489964517
 Root     15 :     6.504764390147334
 Root     16 :     6.651482321028286
 Root     17 :     6.790386806856552
 Root     18 :     6.875472798314691
 Root     19 :     7.026585548093843
 Root     20 :     7.044048660371828
 Root     21 :     7.164810868418750
 Root     22 :     7.221326711227047
 Root     23 :     7.279294979330248
 Root     24 :     7.303917446405131
 Root     25 :     7.411923892066876
 Root     26 :     7.443768266017250
 Root     27 :     7.572525055521544
 Root     28 :     7.606533589023164
 Root     29 :     7.614406492347991
 Root     30 :     7.675559665112186
 Root     31 :     7.685397451140343
 Root     32 :     7.792849831923194
 Root     33 :     7.809511673723306
 Root     34 :     7.852601861246820
 Root     35 :     7.898831304485567
 Root     36 :     7.950930460025940
 Root     37 :     7.975908270486259
 Root     38 :     8.048951373990946
 Root     39 :     8.130710599216560
 Root     40 :     8.166364183137041
 Root     41 :     8.214668250337745
 Root     42 :     8.252702677157139
 Root     43 :     8.284721850953366
 Root     44 :     8.351881449659674
 Root     45 :     8.427352786887944
 Root     46 :     8.443040262628946
 Root     47 :     8.484877263568070
 Root     48 :     8.509113418773037
 Root     49 :     8.523384434324033
 Root     50 :     8.581945820355989
 Root     51 :     8.613140937595199
 Root     52 :     8.626460440522530
 Root     53 :     8.635557442956108
 Root     54 :     8.793402214290852
 Root     55 :     8.817804968023578
 Root     56 :     8.870343359451844
 Root     57 :     8.902200680856803
 Root     58 :     8.919149266092502
 Root     59 :     8.955204077359630
 Root     60 :     8.977169410112813
 Root     61 :     9.007252315187278
 Root     62 :     9.019981972412440
 Root     63 :     9.068292232536104
 Root     64 :     9.095067590194066
 Root     65 :     9.175145377739426
 Root     66 :     9.177525330223144
 Root     67 :     9.254278890097714
 Root     68 :     9.262364537860263
 Root     69 :     9.387803023037483
 Root     70 :     9.439827463603953
 Root     71 :     9.446312103798855
 Root     72 :     9.548144718869528
 Root     73 :     9.581615204391813
 Root     74 :     9.644666358622588
 Root     75 :     9.647320705032579
 Root     76 :     9.662753297457490
 Root     77 :     9.695354606416156
 Root     78 :     9.743520186399055
 Root     79 :     9.876734158606576
 Root     80 :    10.031507063300918
 Iteration     2 Dimension   120 NMult    80 NNew     40
 CISAX will form    40 AO SS matrices at one time.
 NMat=    40 NSing=    40 JSym2X= 0.
 Root      1 not converged, maximum delta is    0.067586680801689
 Root      2 not converged, maximum delta is    0.047673827818141
 Root      3 not converged, maximum delta is    0.102377454369806
 Root      4 not converged, maximum delta is    0.050879027484215
 Root      5 not converged, maximum delta is    0.140043240855180
 Root      6 not converged, maximum delta is    0.119436191369278
 Root      7 not converged, maximum delta is    0.140573208866979
 Root      8 not converged, maximum delta is    0.060265356637506
 New state      9 was old state     11
 Root      9 not converged, maximum delta is    0.207255161104787
 New state     10 was old state      9
 Root     10 not converged, maximum delta is    0.080549424972148
 New state     11 was old state     10
 Root     11 not converged, maximum delta is    0.083726279542565
 New state     12 was old state     17
 Root     12 not converged, maximum delta is    0.295500830222507
 New state     13 was old state     12
 Root     13 not converged, maximum delta is    0.277450464316865
 New state     14 was old state     15
 Root     14 not converged, maximum delta is    0.311165114065679
 New state     15 was old state     13
 Root     15 not converged, maximum delta is    0.447336583328671
 New state     16 was old state     14
 Root     16 not converged, maximum delta is    0.149136646021277
 New state     17 was old state     16
 Root     17 not converged, maximum delta is    0.060025829051943
 Root     18 not converged, maximum delta is    0.098722046259426
 Root     19 not converged, maximum delta is    0.102295909131102
 New state     20 was old state     21
 Root     20 not converged, maximum delta is    0.336751647401119
 Excitation Energies [eV] at current iteration:
 Root      1 :     3.108095653812170   Change is   -0.213484276344474
 Root      2 :     3.358614403194822   Change is   -0.422548642876312
 Root      3 :     4.507700706493911   Change is   -0.197203003735636
 Root      4 :     4.625498327370248   Change is   -0.179587152163084
 Root      5 :     4.703387200229757   Change is   -0.385386382930507
 Root      6 :     4.976922534929179   Change is   -0.288316618904782
 Root      7 :     5.208177014690208   Change is   -0.219769216000483
 Root      8 :     5.546527562241155   Change is   -0.288453225626243
 Root      9 :     5.835223670494504   Change is   -0.323798599463030
 Root     10 :     5.890168173066099   Change is   -0.112214868050516
 Root     11 :     6.057149626775005   Change is   -0.075671599739035
 Root     12 :     6.100347825838144   Change is   -0.690038981018408
 Root     13 :     6.148570697235550   Change is   -0.099560382343147
 Root     14 :     6.182801533304464   Change is   -0.321962856842869
 Root     15 :     6.220440273194304   Change is   -0.159617395588523
 Root     16 :     6.367987401053205   Change is   -0.123617088911311
 Root     17 :     6.571993959224136   Change is   -0.079488361804151
 Root     18 :     6.777479796448588   Change is   -0.097993001866103
 Root     19 :     6.864272827127001   Change is   -0.162312720966842
 Root     20 :     6.902381172225824   Change is   -0.262429696192927
 Iteration     3 Dimension   160 NMult   120 NNew     40
 CISAX will form    40 AO SS matrices at one time.
 NMat=    40 NSing=    40 JSym2X= 0.
 Root      1 not converged, maximum delta is    0.006472239502884
 Root      2 not converged, maximum delta is    0.003711930265966
 Root      3 not converged, maximum delta is    0.011624204886521
 Root      4 not converged, maximum delta is    0.006901214801796
 Root      5 not converged, maximum delta is    0.012820215000701
 Root      6 not converged, maximum delta is    0.013175162706755
 Root      7 not converged, maximum delta is    0.005235500408095
 Root      8 not converged, maximum delta is    0.004560105983961
 Root      9 not converged, maximum delta is    0.012746972073381
 Root     10 not converged, maximum delta is    0.018795809468369
 Root     11 not converged, maximum delta is    0.018896501717045
 Root     12 not converged, maximum delta is    0.084909575617493
 Root     13 not converged, maximum delta is    0.076838826037723
 Root     14 not converged, maximum delta is    0.049044560032181
 Root     15 not converged, maximum delta is    0.051053390470024
 Root     16 not converged, maximum delta is    0.010256361174516
 Root     17 not converged, maximum delta is    0.006277509364785
 New state     18 was old state     20
 Root     18 not converged, maximum delta is    0.229135842000376
 New state     19 was old state     18
 Root     19 not converged, maximum delta is    0.028750363733722
 New state     20 was old state     19
 Root     20 not converged, maximum delta is    0.043711320495010
 Excitation Energies [eV] at current iteration:
 Root      1 :     3.103030567290805   Change is   -0.005065086521364
 Root      2 :     3.339365630021054   Change is   -0.019248773173767
 Root      3 :     4.500459130213676   Change is   -0.007241576280235
 Root      4 :     4.616918634957230   Change is   -0.008579692413018
 Root      5 :     4.684186267402876   Change is   -0.019200932826882
 Root      6 :     4.964112429596933   Change is   -0.012810105332246
 Root      7 :     5.197073485737546   Change is   -0.011103528952662
 Root      8 :     5.537015530661407   Change is   -0.009512031579749
 Root      9 :     5.819527094928329   Change is   -0.015696575566175
 Root     10 :     5.882084051579182   Change is   -0.008084121486918
 Root     11 :     6.050868601158525   Change is   -0.006281025616481
 Root     12 :     6.065650658130718   Change is   -0.034697167707426
 Root     13 :     6.138166394800061   Change is   -0.010404302435489
 Root     14 :     6.169823085169828   Change is   -0.012978448134637
 Root     15 :     6.205200592703373   Change is   -0.015239680490931
 Root     16 :     6.363321126353773   Change is   -0.004666274699433
 Root     17 :     6.568650077731656   Change is   -0.003343881492480
 Root     18 :     6.685395226703597   Change is   -0.216985945522227
 Root     19 :     6.773269686758421   Change is   -0.004210109690167
 Root     20 :     6.845101224775648   Change is   -0.019171602351353
 Iteration     4 Dimension   200 NMult   160 NNew     40
 CISAX will form    40 AO SS matrices at one time.
 NMat=    40 NSing=    40 JSym2X= 0.
 Root      1 has converged.
 Root      2 not converged, maximum delta is    0.001548749132459
 Root      3 has converged.
 Root      4 not converged, maximum delta is    0.001303750475750
 Root      5 not converged, maximum delta is    0.001567225951400
 Root      6 has converged.
 Root      7 not converged, maximum delta is    0.001608575267076
 Root      8 not converged, maximum delta is    0.001076176616748
 Root      9 not converged, maximum delta is    0.001953582413582
 Root     10 not converged, maximum delta is    0.003802241923162
 Root     11 not converged, maximum delta is    0.005868130074364
 Root     12 not converged, maximum delta is    0.008238294081604
 Root     13 not converged, maximum delta is    0.009464846805295
 Root     14 not converged, maximum delta is    0.007792632278724
 Root     15 not converged, maximum delta is    0.003014745959228
 Root     16 not converged, maximum delta is    0.001507083824126
 Root     17 not converged, maximum delta is    0.003895010090913
 Root     18 not converged, maximum delta is    0.029752357905041
 Root     19 not converged, maximum delta is    0.428789200680890
 No map to state     20
 Excitation Energies [eV] at current iteration:
 Root      1 :     3.102913175068721   Change is   -0.000117392222084
 Root      2 :     3.337505808484543   Change is   -0.001859821536512
 Root      3 :     4.500041715821664   Change is   -0.000417414392012
 Root      4 :     4.616301281373472   Change is   -0.000617353583757
 Root      5 :     4.683153935078878   Change is   -0.001032332323998
 Root      6 :     4.963538561063812   Change is   -0.000573868533121
 Root      7 :     5.196485664710239   Change is   -0.000587821027307
 Root      8 :     5.536506430242999   Change is   -0.000509100418407
 Root      9 :     5.818387157676895   Change is   -0.001139937251434
 Root     10 :     5.881630434795665   Change is   -0.000453616783516
 Root     11 :     6.050204852125676   Change is   -0.000663749032849
 Root     12 :     6.062078049504070   Change is   -0.003572608626648
 Root     13 :     6.137152344824322   Change is   -0.001014049975739
 Root     14 :     6.168528914492316   Change is   -0.001294170677512
 Root     15 :     6.203964400090924   Change is   -0.001236192612449
 Root     16 :     6.362981945436885   Change is   -0.000339180916888
 Root     17 :     6.568401055994019   Change is   -0.000249021737636
 Root     18 :     6.658698577960907   Change is   -0.026696648742690
 Root     19 :     6.760389196527372   Change is   -0.012880490231048
 Root     20 :     6.775494849669296
 Iteration     5 Dimension   234 NMult   200 NNew     34
 CISAX will form    34 AO SS matrices at one time.
 NMat=    34 NSing=    34 JSym2X= 0.
 Root      1 has converged.
 Root      2 has converged.
 Root      3 has converged.
 Root      4 has converged.
 Root      5 has converged.
 Root      6 has converged.
 Root      7 has converged.
 Root      8 has converged.
 Root      9 has converged.
 Root     10 has converged.
 Root     11 not converged, maximum delta is    0.001307829082713
 Root     12 has converged.
 Root     13 has converged.
 Root     14 has converged.
 Root     15 has converged.
 Root     16 has converged.
 Root     17 not converged, maximum delta is    0.001121900354290
 Root     18 not converged, maximum delta is    0.010772557779071
 Root     19 not converged, maximum delta is    0.170080462251553
 Root     20 not converged, maximum delta is    0.143994141269978
 Excitation Energies [eV] at current iteration:
 Root      1 :     3.102912623646450   Change is   -0.000000551422271
 Root      2 :     3.337443556784612   Change is   -0.000062251699931
 Root      3 :     4.500036990376017   Change is   -0.000004725445646
 Root      4 :     4.616282708181772   Change is   -0.000018573191701
 Root      5 :     4.683114789695881   Change is   -0.000039145382997
 Root      6 :     4.963515621348425   Change is   -0.000022939715387
 Root      7 :     5.196460134230734   Change is   -0.000025530479505
 Root      8 :     5.536481202560045   Change is   -0.000025227682954
 Root      9 :     5.818321298244864   Change is   -0.000065859432031
 Root     10 :     5.881606788300431   Change is   -0.000023646495235
 Root     11 :     6.050149407817738   Change is   -0.000055444307938
 Root     12 :     6.061900589596834   Change is   -0.000177459907236
 Root     13 :     6.137096734800871   Change is   -0.000055610023451
 Root     14 :     6.168464800902441   Change is   -0.000064113589874
 Root     15 :     6.203886325787084   Change is   -0.000078074303839
 Root     16 :     6.362963530570829   Change is   -0.000018414866056
 Root     17 :     6.568375842808104   Change is   -0.000025213185916
 Root     18 :     6.656803251819660   Change is   -0.001895326141246
 Root     19 :     6.724023469054892   Change is   -0.036365727472481
 Root     20 :     6.773509763638356   Change is   -0.001985086030940
 Iteration     6 Dimension   244 NMult   234 NNew     10
 CISAX will form    10 AO SS matrices at one time.
 NMat=    10 NSing=    10 JSym2X= 0.
 Root      1 has converged.
 Root      2 has converged.
 Root      3 has converged.
 Root      4 has converged.
 Root      5 has converged.
 Root      6 has converged.
 Root      7 has converged.
 Root      8 has converged.
 Root      9 has converged.
 Root     10 has converged.
 Root     11 has converged.
 Root     12 has converged.
 Root     13 has converged.
 Root     14 has converged.
 Root     15 has converged.
 Root     16 has converged.
 Root     17 has converged.
 Root     18 has converged.
 Root     19 not converged, maximum delta is    0.007707607330959
 Root     20 not converged, maximum delta is    0.002938920225569
 Excitation Energies [eV] at current iteration:
 Root      1 :     3.102912482092431   Change is   -0.000000141554019
 Root      2 :     3.337443419163624   Change is   -0.000000137620988
 Root      3 :     4.500036899243322   Change is   -0.000000091132696
 Root      4 :     4.616282676272161   Change is   -0.000000031909611
 Root      5 :     4.683114480352095   Change is   -0.000000309343786
 Root      6 :     4.963514959598164   Change is   -0.000000661750261
 Root      7 :     5.196460090592043   Change is   -0.000000043638691
 Root      8 :     5.536481113043648   Change is   -0.000000089516398
 Root      9 :     5.818321059868365   Change is   -0.000000238376499
 Root     10 :     5.881606692090450   Change is   -0.000000096209981
 Root     11 :     6.050146101020406   Change is   -0.000003306797332
 Root     12 :     6.061899922434097   Change is   -0.000000667162737
 Root     13 :     6.137096128061176   Change is   -0.000000606739694
 Root     14 :     6.168464371527875   Change is   -0.000000429374566
 Root     15 :     6.203885853446225   Change is   -0.000000472340859
 Root     16 :     6.362963465871037   Change is   -0.000000064699792
 Root     17 :     6.568372877886214   Change is   -0.000002964921889
 Root     18 :     6.656697712130406   Change is   -0.000105539689255
 Root     19 :     6.721693931809529   Change is   -0.002329537245362
 Root     20 :     6.773476438075159   Change is   -0.000033325563196
 Iteration     7 Dimension   248 NMult   244 NNew      4
 CISAX will form     4 AO SS matrices at one time.
 NMat=     4 NSing=     4 JSym2X= 0.
 Root      1 has converged.
 Root      2 has converged.
 Root      3 has converged.
 Root      4 has converged.
 Root      5 has converged.
 Root      6 has converged.
 Root      7 has converged.
 Root      8 has converged.
 Root      9 has converged.
 Root     10 has converged.
 Root     11 has converged.
 Root     12 has converged.
 Root     13 has converged.
 Root     14 has converged.
 Root     15 has converged.
 Root     16 has converged.
 Root     17 has converged.
 Root     18 has converged.
 Root     19 not converged, maximum delta is    0.001124277226143
 Root     20 has converged.
 Excitation Energies [eV] at current iteration:
 Root      1 :     3.102912453402417   Change is   -0.000000028690014
 Root      2 :     3.337443414026620   Change is   -0.000000005137004
 Root      3 :     4.500036853731550   Change is   -0.000000045511772
 Root      4 :     4.616282674532267   Change is   -0.000000001739893
 Root      5 :     4.683114458226894   Change is   -0.000000022125200
 Root      6 :     4.963514911873213   Change is   -0.000000047724951
 Root      7 :     5.196460088677881   Change is   -0.000000001914162
 Root      8 :     5.536481107538346   Change is   -0.000000005505302
 Root      9 :     5.818321042736843   Change is   -0.000000017131522
 Root     10 :     5.881606663290317   Change is   -0.000000028800132
 Root     11 :     6.050146099953351   Change is   -0.000000001067055
 Root     12 :     6.061899883610869   Change is   -0.000000038823228
 Root     13 :     6.137096110651245   Change is   -0.000000017409932
 Root     14 :     6.168464340809274   Change is   -0.000000030718602
 Root     15 :     6.203885823411786   Change is   -0.000000030034440
 Root     16 :     6.362963459125590   Change is   -0.000000006745447
 Root     17 :     6.568372808118423   Change is   -0.000000069767791
 Root     18 :     6.656697448315490   Change is   -0.000000263814916
 Root     19 :     6.721538337770074   Change is   -0.000155594039456
 Root     20 :     6.773473881586542   Change is   -0.000002556488618
 Iteration     8 Dimension   250 NMult   248 NNew      2
 CISAX will form     2 AO SS matrices at one time.
 NMat=     2 NSing=     2 JSym2X= 0.
 Root      1 has converged.
 Root      2 has converged.
 Root      3 has converged.
 Root      4 has converged.
 Root      5 has converged.
 Root      6 has converged.
 Root      7 has converged.
 Root      8 has converged.
 Root      9 has converged.
 Root     10 has converged.
 Root     11 has converged.
 Root     12 has converged.
 Root     13 has converged.
 Root     14 has converged.
 Root     15 has converged.
 Root     16 has converged.
 Root     17 has converged.
 Root     18 has converged.
 Root     19 has converged.
 Root     20 has converged.
 Excitation Energies [eV] at current iteration:
 Root      1 :     3.102912447798054   Change is   -0.000000005604364
 Root      2 :     3.337443410672373   Change is   -0.000000003354247
 Root      3 :     4.500036832906731   Change is   -0.000000020824820
 Root      4 :     4.616282673953521   Change is   -0.000000000578747
 Root      5 :     4.683114456069926   Change is   -0.000000002156969
 Root      6 :     4.963514892007492   Change is   -0.000000019865721
 Root      7 :     5.196460087481722   Change is   -0.000000001196159
 Root      8 :     5.536481103208408   Change is   -0.000000004329937
 Root      9 :     5.818321037388477   Change is   -0.000000005348365
 Root     10 :     5.881606658402514   Change is   -0.000000004887803
 Root     11 :     6.050146099834594   Change is   -0.000000000118757
 Root     12 :     6.061899856826521   Change is   -0.000000026784348
 Root     13 :     6.137096107049535   Change is   -0.000000003601710
 Root     14 :     6.168464331276599   Change is   -0.000000009532675
 Root     15 :     6.203885793533600   Change is   -0.000000029878185
 Root     16 :     6.362963454265086   Change is   -0.000000004860504
 Root     17 :     6.568372805760010   Change is   -0.000000002358413
 Root     18 :     6.656697436041475   Change is   -0.000000012274015
 Root     19 :     6.721526885715056   Change is   -0.000011452055018
 Root     20 :     6.773473696830773   Change is   -0.000000184755769
 Convergence achieved on expansion vectors.
 ***********************************************************************
 Excited states from <AA,BB:AA,BB> singles matrix:
 ***********************************************************************
 
 1PDM for each excited state written to RWF  633
 Ground to excited state transition densities written to RWF  633
 Ground to excited state transition electric dipole moments (Au):
       state          X           Y           Z        Dip. S.      Osc.
         1        -0.1584     -0.0074     -0.0044      0.0252      0.0019
         2         3.8843      0.1890     -0.0141     15.1235      1.2366
         3         0.5141      0.7112      0.0136      0.7703      0.0849
         4        -0.0473     -0.2128      0.0035      0.0475      0.0054
         5         0.2943     -0.2967     -0.0228      0.1752      0.0201
         6        -0.3338      1.1078     -0.0155      1.3389      0.1628
         7         0.6598      0.2265      0.0069      0.4867      0.0620
         8        -0.6267     -0.7233     -0.0096      0.9160      0.1242
         9         0.1806     -0.9540      0.0678      0.9473      0.1350
        10        -0.0216      0.0236      0.0097      0.0011      0.0002
        11         0.0160      0.0077     -0.0134      0.0005      0.0001
        12         0.7870     -1.1561     -0.1080      1.9678      0.2922
        13         0.0334     -0.3498      0.3101      0.2196      0.0330
        14         0.0647     -0.5230     -0.1951      0.3158      0.0477
        15        -0.2986      0.4349     -0.1407      0.2981      0.0453
        16        -0.0729     -0.0406     -0.0012      0.0070      0.0011
        17        -0.0384      0.0158      0.2089      0.0454      0.0073
        18         0.4716      1.1705      0.0014      1.5925      0.2597
        19         1.3611      0.2735     -0.0288      1.9283      0.3175
        20        -0.0479     -0.0222     -0.0952      0.0118      0.0020
 Ground to excited state transition velocity dipole moments (Au):
       state          X           Y           Z        Dip. S.      Osc.
         1         0.0177      0.0005     -0.0023      0.0003      0.0019
         2        -0.4667     -0.0150      0.0019      0.2180      1.1851
         3        -0.0814     -0.1243     -0.0025      0.0221      0.0890
         4         0.0138      0.0323     -0.0006      0.0012      0.0049
         5        -0.0478      0.0466      0.0042      0.0045      0.0173
         6         0.0550     -0.2021      0.0029      0.0439      0.1604
         7        -0.1247     -0.0449     -0.0014      0.0176      0.0613
         8         0.1227      0.1545      0.0022      0.0389      0.1276
[...]
    11  C    0.004441  -0.000126   0.000063   0.000053   0.000015   0.000014
    12  H   -0.005467   0.003586  -0.000414  -0.000392  -0.000004  -0.000017
    13  H    0.000004  -0.000000   0.000000   0.000000   0.000000  -0.000000
    14  H   -0.000163  -0.000032   0.000002   0.000002  -0.000001   0.000000
    15  C    0.000000  -0.000000   0.000000   0.000000  -0.000000   0.000013
    16  C   -0.000000   0.000000  -0.000000  -0.000000  -0.000000  -0.000000
    17  C   -0.000000  -0.000000   0.000000   0.000000   0.000000  -0.000082
    18  C    0.000000  -0.000000  -0.000000   0.000000   0.000000  -0.000000
    19  H   -0.000000   0.000000   0.000000   0.000000  -0.000000   0.000001
    20  C    0.000000  -0.000000  -0.000000   0.000000   0.000000   0.000003
    21  H   -0.000004   0.000000   0.000000   0.000000  -0.000000   0.000283
    22  C   -0.000000   0.000000   0.000000  -0.000000  -0.000000   0.000000
    23  H    0.000000   0.000000  -0.000000  -0.000000   0.000000  -0.000000
    24  H    0.000000   0.000000  -0.000000  -0.000000   0.000000  -0.000000
    25  N    6.646311   0.291647  -0.035116  -0.035392  -0.016515  -0.052222
    26  C    0.291647   4.777594   0.409795   0.409866   0.407039  -0.006012
    27  H   -0.035116   0.409795   0.538422  -0.036137  -0.022217  -0.000002
    28  H   -0.035392   0.409866  -0.036137   0.538451  -0.022281   0.000000
    29  H   -0.016515   0.407039  -0.022217  -0.022281   0.513586   0.003211
    30  C   -0.052222  -0.006012  -0.000002   0.000000   0.003211   4.849468
    31  H   -0.002337  -0.000662   0.000110  -0.000084  -0.000987   0.410180
    32  H    0.003889   0.000471  -0.000013  -0.000012   0.000195   0.410130
    33  H   -0.002321  -0.000712  -0.000083   0.000112  -0.000953   0.410177
    34  C   -0.000000   0.000000   0.000000   0.000000  -0.000000  -0.000000
    35  H    0.000000   0.000000   0.000000  -0.000000  -0.000000   0.000000
    36  H    0.000000  -0.000000  -0.000000   0.000000  -0.000000   0.000000
    37  H   -0.000000   0.000000  -0.000000   0.000000  -0.000000   0.000000
    38  N   -0.000000   0.000000   0.000000  -0.000000  -0.000000  -0.000000
    39  C   -0.000000  -0.000000   0.000000   0.000000  -0.000000   0.000000
    40  H    0.000000  -0.000000  -0.000000   0.000000  -0.000000   0.000000
    41  H    0.000000  -0.000000  -0.000000   0.000000  -0.000000   0.000000
    42  H    0.000000  -0.000000   0.000000  -0.000000  -0.000000  -0.000000
              31         32         33         34         35         36
     1  N   -0.000005   0.013556   0.000003   0.000000   0.000000   0.000000
     2  N    0.000016  -0.000902   0.000017  -0.000000   0.000000   0.000000
     3  C    0.001112  -0.016086   0.001096   0.000000   0.000000   0.000000
     4  C    0.000244   0.004131   0.000253  -0.000000  -0.000000  -0.000000
     5  C   -0.041322  -0.026739  -0.041374   0.000000  -0.000000  -0.000000
     6  C   -0.000536  -0.001115  -0.000540  -0.000000  -0.000000  -0.000000
     7  C    0.000025   0.000129   0.000025  -0.000000  -0.000000   0.000000
     8  C   -0.000012  -0.000010  -0.000012  -0.000000  -0.000000  -0.000000
     9  C   -0.000001  -0.000000  -0.000001   0.000000   0.000000   0.000000
    10  H    0.000001   0.000022   0.000001   0.000000   0.000000   0.000000
    11  C   -0.000001   0.000000  -0.000001   0.000000   0.000000  -0.000000
    12  H   -0.000002  -0.000001  -0.000002   0.000000  -0.000000   0.000000
    13  H    0.000000  -0.000000   0.000000  -0.000000  -0.000000  -0.000000
    14  H    0.000000   0.000000   0.000000   0.000000   0.000000   0.000000
    15  C   -0.000001  -0.000355  -0.000002   0.000026  -0.000095  -0.000053
    16  C   -0.000000   0.000020  -0.000000   0.000148   0.000735  -0.000422
    17  C   -0.000006  -0.000187  -0.000004  -0.000243   0.000039  -0.000057
    18  C   -0.000000  -0.000002   0.000000  -0.011530   0.002842   0.001529
    19  H    0.000000   0.000004   0.000000  -0.000034   0.000026   0.000009
    20  C   -0.000000  -0.000029  -0.000000   0.005168  -0.000166   0.000867
    21  H   -0.000008   0.002818  -0.000008   0.000013   0.000001  -0.000000
    22  C    0.000000   0.000004   0.000000  -0.077541  -0.010270  -0.001094
    23  H   -0.000000  -0.000000   0.000000   0.001660  -0.003992  -0.001029
    24  H    0.000000  -0.000011   0.000000  -0.000286  -0.000033   0.000035
    25  N   -0.002337   0.003889  -0.002321  -0.000000   0.000000   0.000000
    26  C   -0.000662   0.000471  -0.000712   0.000000   0.000000  -0.000000
    27  H    0.000110  -0.000013  -0.000083   0.000000   0.000000  -0.000000
    28  H   -0.000084  -0.000012   0.000112   0.000000  -0.000000   0.000000
    29  H   -0.000987   0.000195  -0.000953  -0.000000  -0.000000  -0.000000
    30  C    0.410180   0.410130   0.410177  -0.000000   0.000000   0.000000
    31  H    0.537417  -0.019264  -0.031020   0.000000   0.000000  -0.000000
    32  H   -0.019264   0.505544  -0.019189   0.000000   0.000000   0.000000
    33  H   -0.031020  -0.019189   0.537437  -0.000000  -0.000000   0.000000
    34  C    0.000000   0.000000  -0.000000   4.785318   0.409023   0.409682
    35  H    0.000000   0.000000  -0.000000   0.409023   0.574710  -0.049931
    36  H   -0.000000   0.000000   0.000000   0.409682  -0.049931   0.587277
    37  H    0.000000   0.000000   0.000000   0.406488  -0.022188  -0.026053
    38  N    0.000000   0.000000  -0.000000   0.324580  -0.036157  -0.050480
    39  C   -0.000000   0.000000  -0.000000  -0.061275   0.005386   0.002228
    40  H   -0.000000   0.000000   0.000000  -0.015010   0.000703  -0.000115
    41  H   -0.000000   0.000000   0.000000   0.002222  -0.001161   0.003069
    42  H    0.000000   0.000000  -0.000000   0.005350   0.000695  -0.001161
              37         38         39         40         41         42
     1  N    0.000000   0.000000   0.000000   0.000000   0.000000   0.000000
     2  N   -0.000000  -0.000002  -0.000000  -0.000000   0.000000  -0.000000
     3  C    0.000000   0.000000   0.000000   0.000000   0.000000   0.000000
     4  C    0.000000   0.000000   0.000000   0.000000   0.000000   0.000000
     5  C    0.000000  -0.000000  -0.000000  -0.000000  -0.000000  -0.000000
     6  C   -0.000000  -0.000000  -0.000000  -0.000000  -0.000000  -0.000000
     7  C   -0.000000  -0.000000  -0.000000  -0.000000   0.000000   0.000000
     8  C   -0.000000  -0.000000  -0.000000  -0.000000  -0.000000  -0.000000
     9  C    0.000000   0.000000   0.000000   0.000000   0.000000   0.000000
    10  H    0.000000   0.000000   0.000000   0.000000   0.000000   0.000000
    11  C    0.000000   0.000000   0.000000   0.000000  -0.000000   0.000000
    12  H   -0.000000  -0.000000  -0.000000  -0.000000  -0.000000  -0.000000
    13  H   -0.000000  -0.000000  -0.000000  -0.000000  -0.000000  -0.000000
    14  H    0.000000   0.000000   0.000000   0.000000   0.000000   0.000000
    15  C   -0.000001  -0.000248   0.000014  -0.000002  -0.000059  -0.000093
    16  C    0.000021   0.004798  -0.000265   0.000021  -0.000068   0.000026
    17  C    0.000023   0.005116   0.000154   0.000023  -0.000415   0.000759
    18  C    0.000909  -0.059378   0.005108  -0.000251   0.000946  -0.000134
    19  H   -0.000001  -0.000094   0.000014  -0.000000  -0.000000   0.000000
    20  C   -0.000260  -0.059012  -0.011695   0.000908   0.001147   0.002573
    21  H   -0.000000  -0.000077  -0.000044  -0.000001   0.000012   0.000028
    22  C    0.006281   0.403462  -0.077200   0.006263  -0.001009  -0.010241
    23  H    0.000452  -0.007206  -0.000312  -0.000017   0.000035  -0.000033
    24  H   -0.000017  -0.007173   0.001700   0.000452  -0.001059  -0.003845
    25  N   -0.000000  -0.000000  -0.000000   0.000000   0.000000   0.000000
    26  C    0.000000   0.000000  -0.000000  -0.000000  -0.000000  -0.000000
    27  H   -0.000000   0.000000   0.000000  -0.000000  -0.000000   0.000000
    28  H    0.000000  -0.000000   0.000000   0.000000   0.000000  -0.000000
    29  H   -0.000000  -0.000000  -0.000000  -0.000000  -0.000000  -0.000000
    30  C    0.000000  -0.000000   0.000000   0.000000   0.000000  -0.000000
    31  H    0.000000   0.000000  -0.000000  -0.000000  -0.000000   0.000000
    32  H    0.000000   0.000000   0.000000   0.000000   0.000000   0.000000
    33  H    0.000000  -0.000000  -0.000000   0.000000   0.000000  -0.000000
    34  C    0.406488   0.324580  -0.061275  -0.015010   0.002222   0.005350
    35  H   -0.022188  -0.036157   0.005386   0.000703  -0.001161   0.000695
    36  H   -0.026053  -0.050480   0.002228  -0.000115   0.003069  -0.001161
    37  H    0.535145  -0.020065  -0.014981   0.003107  -0.000119   0.000710
    38  N   -0.020065   6.746006   0.323988  -0.020046  -0.050350  -0.036131
    39  C   -0.014981   0.323988   4.785172   0.406474   0.409802   0.409114
    40  H    0.003107  -0.020046   0.406474   0.534928  -0.025928  -0.022250
    41  H   -0.000119  -0.050350   0.409802  -0.025928   0.586798  -0.049826
    42  H    0.000710  -0.036131   0.409114  -0.022250  -0.049826   0.574599
 Mulliken charges:
               1
     1  N   -0.188585
     2  N   -0.229540
     3  C   -0.089388
     4  C   -0.062768
     5  C    0.212504
     6  C    0.198774
     7  C   -0.081507
     8  C   -0.087425
     9  C   -0.135879
    10  H    0.108773
    11  C   -0.132860
    12  H    0.126762
    13  H    0.113263
    14  H    0.116011
    15  C   -0.021516
    16  C   -0.084879
    17  C   -0.064280
    18  C   -0.169444
    19  H    0.115005
    20  C   -0.167339
    21  H    0.121831
    22  C    0.252233
    23  H    0.128276
    24  H    0.129548
    25  N   -0.471745
    26  C   -0.174484
    27  H    0.146059
    28  H    0.146184
    29  H    0.146602
    30  C   -0.281402
    31  H    0.147141
    32  H    0.143001
    33  H    0.147101
    34  C   -0.183757
    35  H    0.129831
    36  H    0.125700
    37  H    0.130550
    38  N   -0.461532
    39  C   -0.183383
    40  H    0.130740
    41  H    0.125963
    42  H    0.129860
 Sum of Mulliken charges =  -0.00000
 Mulliken charges with hydrogens summed into heavy atoms:
               1
     1  N   -0.188585
     2  N   -0.229540
     3  C   -0.089388
     4  C   -0.062768
     5  C    0.212504
     6  C    0.198774
     7  C    0.027266
     8  C    0.039337
     9  C   -0.022616
    11  C   -0.016850
    15  C   -0.021516
    16  C    0.030126
    17  C    0.057551
    18  C   -0.041168
    20  C   -0.037791
    22  C    0.252233
    25  N   -0.471745
    26  C    0.264361
    30  C    0.155841
    34  C    0.202324
    38  N   -0.461532
    39  C    0.203180
 Electronic spatial extent (au):  <R**2>=          10730.4765
 Charge=             -0.0000 electrons
 Dipole moment (field-independent basis, Debye):
    X=             -0.4997    Y=              3.8898    Z=              0.2218  Tot=              3.9281
 Quadrupole moment (field-independent basis, Debye-Ang):
   XX=            -63.0787   YY=           -112.8305   ZZ=           -137.4561
   XY=             14.7763   XZ=             -1.1285   YZ=              0.1537
 Traceless Quadrupole moment (field-independent basis, Debye-Ang):
   XX=             41.3764   YY=             -8.3754   ZZ=            -33.0010
   XY=             14.7763   XZ=             -1.1285   YZ=              0.1537
 Octapole moment (field-independent basis, Debye-Ang**2):
  XXX=           -124.2509  YYY=             23.1528  ZZZ=              0.4503  XYY=             16.6601
  XXY=             65.6687  XXZ=              7.0614  XZZ=             -2.7660  YZZ=             11.7964
  YYZ=             -0.4559  XYZ=             -1.1265
 Hexadecapole moment (field-independent basis, Debye-Ang**3):
 XXXX=          -9278.8738 YYYY=          -1923.7243 ZZZZ=           -177.9441 XXXY=            282.4140
 XXXZ=            -33.1212 YYYX=             88.1869 YYYZ=              0.0509 ZZZX=             -4.2537
 ZZZY=              0.3309 XXYY=          -2101.3346 XXZZ=          -2227.3617 YYZZ=           -399.8951
 XXYZ=              3.0497 YYXZ=              3.8937 ZZXY=             43.2821
 N-N= 1.638298776851D+03 E-N=-5.409531691970D+03  KE= 9.135592761207D+02
 Leave Link  601 at Thu Feb 13 13:39:37 2025, MaxMem= 25501368320 cpu:               8.7 elap:               0.3
 (Enter /share/Apps/gaussian/g16/l9999.exe)
 Electronic transition elements 
                 1             2             3             4             5 
      1  -0.916549D+03 -0.916540D+03 -0.916498D+03 -0.916493D+03 -0.916491D+03
      2   0.158447D+00 -0.388427D+01 -0.514136D+00  0.472533D-01 -0.294325D+00
      3  -0.737585D-02  0.189024D+00  0.711153D+00 -0.212841D+00 -0.296672D+00
      4   0.443463D-02  0.141101D-01 -0.135682D-01 -0.352958D-02  0.228394D-01
      5  -0.176924D-01  0.466686D+00  0.813597D-01 -0.137743D-01  0.477741D-01
      6   0.484569D-03 -0.149579D-01 -0.124285D+00  0.323177D-01  0.466150D-01
      7   0.228984D-02 -0.188463D-02  0.253818D-02  0.607135D-03 -0.420363D-02
      8  -0.906837D+00 -0.312362D-01 -0.136066D-01 -0.811556D-03 -0.587484D-02
      9   0.465056D+00  0.819042D-01 -0.534433D-02 -0.182580D-02  0.629130D-01
     10   0.335699D-03 -0.446784D-01 -0.339884D+00 -0.298024D+00  0.206139D-01
     11  -0.435186D-01  0.105687D+01 -0.492233D+00  0.454780D+00  0.292326D+01
     12   0.143300D-01 -0.405471D+00 -0.114955D+00 -0.138567D+00  0.325990D+00
     13  -0.673085D-03  0.735789D-02 -0.515557D-02 -0.229606D-02  0.429289D-01
     14  -0.412269D-02  0.127588D+00 -0.698927D+00 -0.519911D+00 -0.440972D+00
     15  -0.293773D-02 -0.316114D-01  0.155034D-01  0.321775D-02 -0.399808D-01
     16  -0.732005D-01 -0.106663D-01 -0.830847D-02 -0.288928D-02 -0.409988D-03
                 6             7             8             9            10 
      1  -0.916481D+03 -0.916472D+03 -0.916460D+03 -0.916449D+03 -0.916447D+03
      2   0.333846D+00 -0.659794D+00  0.626668D+00 -0.180644D+00  0.216157D-01
      3   0.110781D+01  0.226528D+00 -0.723332D+00 -0.953996D+00  0.236363D-01
      4   0.155240D-01 -0.692513D-02  0.963068D-02 -0.678071D-01 -0.966257D-02
      5  -0.549962D-01  0.124683D+00 -0.122696D+00  0.409556D-01 -0.488510D-02
      6  -0.202093D+00 -0.449326D-01  0.154507D+00  0.203373D+00 -0.504867D-02
      7  -0.288067D-02  0.142645D-02 -0.221863D-02  0.137609D-01  0.654511D-02
      8  -0.738404D-02 -0.130936D-02  0.635731D-02 -0.196088D-02 -0.164470D+00
      9   0.570491D-02 -0.978647D-02 -0.783389D-02 -0.140078D+00  0.218113D-01
     10   0.203989D+01  0.301803D+00  0.135248D+01 -0.115522D+01  0.238437D-01
     11   0.103258D+01 -0.162052D+01 -0.104885D+01 -0.358095D+01  0.103754D+00
     12   0.186593D+00 -0.162568D+00 -0.598977D-01 -0.302948D+00  0.356378D-02
     13  -0.170626D-02 -0.181266D-01 -0.448358D-02 -0.302257D-01 -0.673948D-03
     14   0.128924D+01  0.113904D+00  0.116689D+01 -0.182370D+01  0.658627D-01
     15  -0.464703D-02  0.496867D-02  0.566778D-03  0.115203D+00 -0.412811D-01
     16   0.313897D-02 -0.241981D-02  0.101376D-01 -0.803911D-02 -0.458752D-01
                11            12            13            14            15 
      1  -0.916441D+03 -0.916440D+03 -0.916438D+03 -0.916436D+03 -0.916435D+03
      2  -0.159627D-01 -0.787024D+00 -0.333886D-01 -0.647367D-01  0.298611D+00
      3   0.772164D-02 -0.115615D+01 -0.349785D+00 -0.522982D+00  0.434912D+00
      4   0.133959D-01  0.108018D+00 -0.310110D+00  0.195096D+00  0.140680D+00
      5   0.315456D-02  0.183135D+00  0.311260D-02  0.948820D-02 -0.720842D-01
      6  -0.165853D-02  0.250412D+00  0.750194D-01  0.115358D+00 -0.980352D-01
      7   0.288837D-02 -0.221382D-01  0.653200D-01 -0.422044D-01 -0.309040D-01
      8  -0.199782D+00 -0.112436D-01  0.525895D-02  0.334414D-02 -0.445811D-02
      9   0.104006D+00  0.315613D+00 -0.809542D+00  0.544274D+00  0.383805D+00
     10  -0.243171D-01 -0.399795D+00 -0.142154D+00 -0.535183D+00  0.360809D+00
     11   0.488026D-01 -0.455778D+00 -0.129720D+01 -0.109741D+01 -0.932040D+00
     12  -0.750189D-02  0.164981D+00  0.415689D-01 -0.103035D+00 -0.120556D+00
     13   0.203463D-02  0.746199D-01 -0.715615D-01  0.544466D-01  0.893972D-03
     14   0.588598D-02 -0.192530D+01 -0.604417D+00 -0.718176D+00  0.487281D+00
     15  -0.313782D-01 -0.297162D+00  0.711208D+00 -0.482286D+00 -0.328269D+00
     16  -0.234577D-01 -0.149956D-02 -0.568855D-02  0.422783D-02  0.179540D-02
                16            17            18            19            20 
      1  -0.916429D+03 -0.916422D+03 -0.916418D+03 -0.916416D+03 -0.916414D+03
      2   0.728720D-01  0.383736D-01 -0.471559D+00 -0.136114D+01  0.479033D-01
      3  -0.406151D-01  0.158477D-01  0.117051D+01  0.273457D+00 -0.221845D-01
      4   0.123528D-02 -0.208880D+00 -0.141798D-02  0.287870D-01  0.951963D-01
      5  -0.135694D-01 -0.857996D-02  0.117581D+00  0.332230D+00 -0.118179D-01
      6   0.398857D-02 -0.411285D-02 -0.284168D+00 -0.668284D-01  0.482089D-02
      7  -0.454192D-03  0.378980D-01  0.466348D-03 -0.613284D-02 -0.118283D-01
      8  -0.244833D-01 -0.137388D+00 -0.562675D-03 -0.189252D-01 -0.334408D+00
      9   0.123002D-01  0.604394D-01 -0.579027D-01  0.140946D+00  0.770724D-01
     10   0.754823D+00  0.386475D-01  0.220048D+01  0.644550D+00  0.191629D-01
     11   0.200251D+00 -0.171227D+00 -0.323033D+01  0.349660D+01 -0.276513D+00
     12   0.173593D+00  0.575915D-01  0.116345D+01  0.217302D+00 -0.160329D-01
     13   0.822381D-02 -0.377748D-01 -0.120289D-01  0.339845D-01  0.432383D-01
     14  -0.335819D+00  0.144470D-01  0.175397D+01  0.113870D+01 -0.525853D-01
     15  -0.141704D-02  0.228683D-01  0.443694D-01 -0.109801D+00 -0.840801D-01
     16  -0.741206D-03 -0.121682D+00  0.148753D-01 -0.190634D-01 -0.330721D+00
 Unable to Open any file for archive entry.
 1\1\GINC-SOL-E603\SP\RCAM-B3LYP TD-FC\6-311G(d,p)\C18H20N4\CRF524\13-F
 eb-2025\0\\#p td(nstates=20, singlets) cam-b3lyp/6-311g(d,p) scrf=(sol
 vent=acetonitrile)\\nme2-pai-me_anti-trans_tddft\\0,1\N,0,-0.488921,0.
 674938,0.015249\N,0,0.184389,-0.383225,0.017543\C,0,-1.859685,0.518515
 ,0.007024\C,0,-2.692279,-0.661898,-0.00424\C,0,-2.700663,1.619647,0.00
 8066\C,0,-4.020901,-0.191432,-0.009557\C,0,-2.46419,-2.040957,-0.01090
 2\C,0,-5.116383,-1.048217,-0.020766\C,0,-3.550769,-2.89879,-0.022299\H
 ,0,-1.452328,-2.418101,-0.007079\C,0,-4.862908,-2.409217,-0.027049\H,0
 ,-6.13069,-0.669168,-0.024435\H,0,-3.38517,-3.969614,-0.027552\H,0,-5.
 693161,-3.10509,-0.035818\C,0,1.585057,-0.207525,0.023136\C,0,2.360679
 ,-1.363914,0.046036\C,0,2.244652,1.024046,-0.000273\C,0,3.741445,-1.31
 1138,0.052163\H,0,1.856764,-2.323435,0.056407\C,0,3.621049,1.094435,0.
 005066\H,0,1.658732,1.932871,-0.027054\C,0,4.415831,-0.073959,0.041053
 \H,0,4.297966,-2.236781,0.064792\H,0,4.089758,2.067579,-0.020306\N,0,-
 3.997423,1.19316,-0.001999\C,0,-5.187815,2.020707,-0.003486\H,0,-5.788
 051,1.823041,-0.893197\H,0,-5.791952,1.82169,0.88334\H,0,-4.904242,3.0
 69067,-0.00228\C,0,-2.32525,3.057546,0.018665\H,0,-2.718691,3.566373,0
 .902025\H,0,-1.241236,3.140484,0.025612\H,0,-2.708292,3.576921,-0.8631
 23\C,0,6.571366,-1.216943,-0.036108\H,0,6.345107,-1.907717,0.780465\H,
 0,6.403157,-1.744004,-0.983275\H,0,7.626488,-0.96304,0.029084\N,0,5.78
 4758,-0.003485,0.066864\C,0,6.448418,1.276037,-0.092237\H,0,7.523283,1
 .128656,-0.022587\H,0,6.228713,1.742891,-1.060065\H,0,6.158294,1.97601
 4,0.695698\\Version=ES64L-G16RevC.01\State=1-A\HF=-916.663104\RMSD=4.9
 73e-09\PG=C01 [X(C18H20N4)]\\@
 The archive entry for this job was punched.


 ERWIN WITH HIS PSI CAN DO
 CALCULATIONS QUITE A FEW.
 BUT ONE THING HAS NOT BEEN SEEN
 JUST WHAT DOES PSI REALLY MEAN.
 -- WALTER HUCKEL, TRANS. BY FELIX BLOCH
 Job cpu time:       0 days  4 hours  5 minutes 28.3 seconds.
 Elapsed time:       0 days  0 hours  6 minutes 55.0 seconds.
 File lengths (MBytes):  RWF=   2828 Int=      0 D2E=      0 Chk=    304 Scr=      8
 Normal termination of Gaussian 16 at Thu Feb 13 13:39:37 2025.
